[DEBUG] $(hostname) compute-0-40.local
[DEBUG] ${ORCA_SCRDIR} /state/partition1/cherry/compute-0-40.local__2023_07_15_05_40_06__S3_glycerol_model_7A_2_Flip_BS_aaba_Mn9_3
[DEBUG] $(date) Sat Jul 15 05:40:08 CST 2023

                                 *****************
                                 * O   R   C   A *
                                 *****************

                                            #,                                       
                                            ###                                      
                                            ####                                     
                                            #####                                    
                                            ######                                   
                                           ########,                                 
                                     ,,################,,,,,                         
                               ,,#################################,,                 
                          ,,##########################################,,             
                       ,#########################################, ''#####,          
                    ,#############################################,,   '####,        
                  ,##################################################,,,,####,       
                ,###########''''           ''''###############################       
              ,#####''   ,,,,##########,,,,          '''####'''          '####       
            ,##' ,,,,###########################,,,                        '##       
           ' ,,###''''                  '''############,,,                           
         ,,##''                                '''############,,,,        ,,,,,,###''
      ,#''                                            '''#######################'''  
     '                                                          ''''####''''         
             ,#######,   #######,   ,#######,      ##                                
            ,#'     '#,  ##    ##  ,#'     '#,    #''#        ######   ,####,        
            ##       ##  ##   ,#'  ##            #'  '#       #        #'  '#        
            ##       ##  #######   ##           ,######,      #####,   #    #        
            '#,     ,#'  ##    ##  '#,     ,#' ,#      #,         ##   #,  ,#        
             '#######'   ##     ##  '#######'  #'      '#     #####' # '####'        



                  #######################################################
                  #                        -***-                        #
                  #          Department of theory and spectroscopy      #
                  #    Directorship and core code : Frank Neese         #
                  #        Max Planck Institute fuer Kohlenforschung    #
                  #                Kaiser Wilhelm Platz 1               #
                  #                 D-45470 Muelheim/Ruhr               #
                  #                      Germany                        #
                  #                                                     #
                  #                  All rights reserved                #
                  #                        -***-                        #
                  #######################################################


                         Program Version 5.0.4 -  RELEASE  -


 With contributions from (in alphabetic order):
   Daniel Aravena         : Magnetic Suceptibility
   Michael Atanasov       : Ab Initio Ligand Field Theory (pilot matlab implementation)
   Alexander A. Auer      : GIAO ZORA, VPT2 properties, NMR spectrum
   Ute Becker             : Parallelization
   Giovanni Bistoni       : ED, misc. LED, open-shell LED, HFLD
   Martin Brehm           : Molecular dynamics
   Dmytro Bykov           : SCF Hessian
   Vijay G. Chilkuri      : MRCI spin determinant printing, contributions to CSF-ICE
   Dipayan Datta          : RHF DLPNO-CCSD density
   Achintya Kumar Dutta   : EOM-CC, STEOM-CC
   Dmitry Ganyushin       : Spin-Orbit,Spin-Spin,Magnetic field MRCI
   Miquel Garcia          : C-PCM and meta-GGA Hessian, CC/C-PCM, Gaussian charge scheme
   Yang Guo               : DLPNO-NEVPT2, F12-NEVPT2, CIM, IAO-localization
   Andreas Hansen         : Spin unrestricted coupled pair/coupled cluster methods
   Benjamin Helmich-Paris : MC-RPA, TRAH-SCF, COSX integrals
   Lee Huntington         : MR-EOM, pCC
   Robert Izsak           : Overlap fitted RIJCOSX, COSX-SCS-MP3, EOM
   Marcus Kettner         : VPT2
   Christian Kollmar      : KDIIS, OOCD, Brueckner-CCSD(T), CCSD density, CASPT2, CASPT2-K
   Simone Kossmann        : Meta GGA functionals, TD-DFT gradient, OOMP2, MP2 Hessian
   Martin Krupicka        : Initial AUTO-CI
   Lucas Lang             : DCDCAS
   Marvin Lechner         : AUTO-CI (C++ implementation), FIC-MRCC
   Dagmar Lenk            : GEPOL surface, SMD
   Dimitrios Liakos       : Extrapolation schemes; Compound Job, initial MDCI parallelization
   Dimitrios Manganas     : Further ROCIS development; embedding schemes
   Dimitrios Pantazis     : SARC Basis sets
   Anastasios Papadopoulos: AUTO-CI, single reference methods and gradients
   Taras Petrenko         : DFT Hessian,TD-DFT gradient, ASA, ECA, R-Raman, ABS, FL, XAS/XES, NRVS
   Peter Pinski           : DLPNO-MP2, DLPNO-MP2 Gradient
   Christoph Reimann      : Effective Core Potentials
   Marius Retegan         : Local ZFS, SOC
   Christoph Riplinger    : Optimizer, TS searches, QM/MM, DLPNO-CCSD(T), (RO)-DLPNO pert. Triples
   Tobias Risthaus        : Range-separated hybrids, TD-DFT gradient, RPA, STAB
   Michael Roemelt        : Original ROCIS implementation
   Masaaki Saitow         : Open-shell DLPNO-CCSD energy and density
   Barbara Sandhoefer     : DKH picture change effects
   Avijit Sen             : IP-ROCIS
   Kantharuban Sivalingam : CASSCF convergence, NEVPT2, FIC-MRCI
   Bernardo de Souza      : ESD, SOC TD-DFT
   Georgi Stoychev        : AutoAux, RI-MP2 NMR, DLPNO-MP2 response
   Willem Van den Heuvel  : Paramagnetic NMR
   Boris Wezisla          : Elementary symmetry handling
   Frank Wennmohs         : Technical directorship


 We gratefully acknowledge several colleagues who have allowed us to
 interface, adapt or use parts of their codes:
   Stefan Grimme, W. Hujo, H. Kruse, P. Pracht,  : VdW corrections, initial TS optimization,
                  C. Bannwarth, S. Ehlert          DFT functionals, gCP, sTDA/sTD-DF
   Ed Valeev, F. Pavosevic, A. Kumar             : LibInt (2-el integral package), F12 methods
   Garnet Chan, S. Sharma, J. Yang, R. Olivares  : DMRG
   Ulf Ekstrom                                   : XCFun DFT Library
   Mihaly Kallay                                 : mrcc  (arbitrary order and MRCC methods)
   Jiri Pittner, Ondrej Demel                    : Mk-CCSD
   Frank Weinhold                                : gennbo (NPA and NBO analysis)
   Christopher J. Cramer and Donald G. Truhlar   : smd solvation model
   Lars Goerigk                                  : TD-DFT with DH, B97 family of functionals
   V. Asgeirsson, H. Jonsson                     : NEB implementation
   FAccTs GmbH                                   : IRC, NEB, NEB-TS, DLPNO-Multilevel, CI-OPT
                                                   MM, QMMM, 2- and 3-layer-ONIOM, Crystal-QMMM,
                                                   LR-CPCM, SF, NACMEs, symmetry and pop. for TD-DFT,
                                                   nearIR, NL-DFT gradient (VV10), updates on ESD,
                                                   ML-optimized integration grids
   S Lehtola, MJT Oliveira, MAL Marques          : LibXC Library
   Liviu Ungur et al                             : ANISO software


 Your calculation uses the libint2 library for the computation of 2-el integrals
 For citations please refer to: http://libint.valeyev.net

 Your ORCA version has been built with support for libXC version: 5.1.0
 For citations please refer to: https://tddft.org/programs/libxc/

 This ORCA versions uses:
   CBLAS   interface :  Fast vector & matrix operations
   LAPACKE interface :  Fast linear algebra routines
   SCALAPACK package :  Parallel linear algebra routines
   Shared memory     :  Shared parallel matrices
   BLAS/LAPACK       :  OpenBLAS 0.3.15  USE64BITINT DYNAMIC_ARCH NO_AFFINITY SkylakeX SINGLE_THREADED
        Core in use  :  SkylakeX
   Copyright (c) 2011-2014, The OpenBLAS Project


Your calculation utilizes the atom-pairwise dispersion correction
with the Becke-Johnson damping scheme (D3BJ)
Cite in your paper:
S.Grimme, S.Ehrlich, L.Goerigk, J Comput Chem, (2011), 32, 1456–1465 
S.Grimme, J.Antony, S.Ehrlich and H.Krieg, J.Chem.Phys., 132, (2010), 154104 
   

================================================================================

----- Orbital basis set information -----
Your calculation utilizes the basis: ZORA-def2-TZVP 
   Exponents from def2-TZVP [F. Weigend and R. Ahlrichs, Phys. Chem. Chem. Phys. 7, 3297 (2005)],
   recontracted for ZORA by D. A. Pantazis.

----- AuxJ basis set information -----
Your calculation utilizes the auxiliary basis: SARC/J 
   decontracted def2/J up to Kr:
   F. Weigend, Phys. Chem. Chem. Phys. 8, 1057 (2006)
   and SARC auxiliary basis sets beyond Kr:
   D. A. Pantazis and F. Neese, J. Chem. Theory Comput. 5, 2229 (2009).
   D. A. Pantazis, X. Y. Chen, C. R. Landis and F. Neese, J. Chem. Theory Comput. 4, 908 (2008).
   D. A. Pantazis and F. Neese, Theor. Chem. Acc. 131, 1292 (2012).
   D. A. Pantazis and F. Neese, J. Chem. Theory Comput. 7, 677 (2011).

================================================================================
                                        WARNINGS
                       Please study these warnings very carefully!
================================================================================


WARNING: The HFTyp is != UHF which is not allowed for FlipSpin
  ===> : Switching to HFTyp=UHF


WARNING: Broken symmetry calculations need fully converged wavefunctions
  ===> : Setting SCFConvForced true
         You can overwrite this default with %scf ConvForced false 


INFO   : the flag for use of the SHARK integral package has been found!

================================================================================
                                       INPUT FILE
================================================================================
NAME = S3_glycerol_model_7A_2_Flip_BS_aaba_Mn9_3.orcainp
|  1> %maxcore 4000
|  2> %pal nprocs 15 end
|  3> %moinp "S3_glycerol_model_7A_2_Flip_BS_aaba_Mn9_3.moinp"
|  4> %base "S3_glycerol_model_7A_2_Flip_BS_aaba_Mn9_3"
|  5> ! MORead TPSSh ZORA-def2-TZVP TightSCF CPCM(water) D3BJ printbasis RIJCOSX ZORA 
|  6> %SCF
|  7> Flipspin 9
|  8> FinalMs 3
|  9> END       
| 10> %cpcm epsilon 8.0
| 11> end
| 12> %output print[p_basis] 2 end
| 13> * xyz 1 13
| 14> Ca   -32.786923   39.480822  363.575123
| 15> O    -33.057086   39.745945  366.014558
| 16> O    -31.705389   37.695931  364.862169
| 17> O    -33.712606   37.356939  366.344036
| 18> O    -32.295324   35.322227  363.377099
| 19> O    -33.737025   37.244703  363.327156
| 20> O    -35.029039   38.968584  364.483407
| 21> Mn   -34.742316   38.971597  366.254448
| 22> Mn   -32.061675   38.306403  366.534767
| 23> Mn   -32.988543   36.343625  364.695287
| 24> Mn   -33.438999   36.003400  362.029276
| 25> C    -32.875113   30.227234  362.898131
| 26> C    -33.379123   31.383762  362.027210
| 27> O    -32.522722   32.346372  361.873161
| 28> O    -34.539562   31.355232  361.541835
| 29> H    -33.550633   29.359486  362.838505
| 30> H    -32.821969   30.569016  363.948135
| 31> H    -31.855519   29.934613  362.594665
| 32> C    -29.225257   44.614365  356.400967
| 33> C    -30.345668   43.550275  356.459254
| 34> C    -31.181292   43.497683  357.733497
| 35> C    -31.366530   42.288626  358.441533
| 36> C    -31.864222   44.632501  358.232333
| 37> C    -32.183224   42.210972  359.585106
| 38> C    -32.692919   44.567812  359.364543
| 39> C    -32.872928   43.348814  360.076287
| 40> O    -33.645340   43.277570  361.183254
| 41> H    -29.631167   45.636789  356.507457
| 42> H    -31.027437   43.717350  355.599839
| 43> H    -29.902578   42.549473  356.296263
| 44> H    -30.846448   41.384034  358.095331
| 45> H    -31.760452   45.595106  357.712532
| 46> H    -32.263803   41.278869  360.158237
| 47> H    -33.218776   45.469005  359.703601
| 48> H    -28.487259   44.459794  357.209628
| 49> H    -28.693445   44.562761  355.434521
| 50> C    -29.415391   43.202243  361.215080
| 51> C    -29.800101   44.001247  362.439895
| 52> N    -29.208175   45.202300  362.590287
| 53> O    -30.646031   43.589376  363.272855
| 54> H    -28.363984   43.370738  360.929222
| 55> H    -30.057556   43.507835  360.370827
| 56> H    -28.519866   45.545486  361.928096
| 57> H    -29.446535   45.789378  363.385271
| 58> H    -29.590518   42.132236  361.401827
| 59> C    -30.219862   34.365225  357.883357
| 60> C    -31.284016   35.420171  358.085278
| 61> O    -32.473606   35.090172  358.333092
| 62> H    -30.576751   33.621674  357.151068
| 63> N    -30.873382   36.698286  358.007740
| 64> C    -31.665713   37.878695  358.340148
| 65> C    -31.104188   38.584196  359.584174
| 66> C    -31.499654   38.033716  360.957675
| 67> O    -31.275510   38.753351  361.963151
| 68> O    -32.046093   36.864658  360.972040
| 69> H    -29.888198   36.855206  357.805888
| 70> H    -32.706295   37.558891  358.500995
| 71> H    -29.998288   38.625328  359.542077
| 72> H    -31.433948   39.635179  359.587287
| 73> H    -30.071978   33.840212  358.844676
| 74> H    -29.254074   34.777854  357.549926
| 75> H    -31.649733   38.577441  357.485633
| 76> C    -36.337963   42.830694  366.005325
| 77> C    -36.095558   41.447132  365.507707
| 78> O    -36.408878   41.090504  364.341882
| 79> O    -35.548987   40.685700  366.407997
| 80> H    -35.398290   43.253814  366.398830
| 81> H    -37.047155   42.792761  366.849834
| 82> H    -36.741152   43.479258  365.212677
| 83> C    -36.143601   48.444125  363.039910
| 84> C    -35.117610   47.389434  362.833596
| 85> C    -35.191974   46.131748  362.265338
| 86> N    -33.796678   47.545640  363.225781
| 87> C    -33.100388   46.433313  362.917101
| 88> N    -33.934401   45.564893  362.333386
| 89> H    -37.094922   48.137693  362.576236
| 90> H    -35.830959   49.403377  362.590965
| 91> H    -36.033538   45.605777  361.815094
| 92> H    -32.041770   46.271636  363.109242
| 93> H    -33.723186   44.570944  361.879198
| 94> H    -36.328004   48.623274  364.114738
| 95> C    -34.808006   51.803416  365.723829
| 96> C    -34.353758   50.371572  365.457461
| 97> N    -34.802026   49.418320  366.304242
| 98> O    -33.611052   50.089925  364.486571
| 99> H    -35.373664   51.906423  366.663227
|100> H    -35.440916   52.132292  364.880760
|101> H    -34.534085   48.442591  366.165162
|102> H    -35.401392   49.641607  367.092151
|103> H    -33.922241   52.460326  365.752000
|104> H    -33.470200   48.396507  363.732305
|105> C    -40.803981   40.323173  369.348550
|106> C    -40.863842   38.950391  369.945167
|107> O    -40.408476   37.926015  369.373328
|108> H    -41.347532   40.328810  368.386971
|109> N    -41.443829   38.856767  371.150256
|110> C    -41.546156   37.584363  371.824190
|111> H    -41.817522   39.690501  371.592880
|112> H    -40.547233   37.140113  371.981936
|113> C    -39.840339   36.699968  365.631931
|114> C    -38.582644   37.285159  366.186204
|115> C    -37.319076   37.461819  365.643952
|116> N    -38.516003   37.828068  367.463053
|117> C    -37.276448   38.309727  367.673638
|118> N    -36.522235   38.102709  366.583457
|119> H    -39.668173   36.339144  364.605084
|120> H    -40.650022   37.451904  365.602814
|121> H    -36.935539   37.201870  364.658087
|122> H    -36.948003   38.812739  368.581058
|123> H    -40.195930   35.849639  366.242141
|124> H    -39.306114   37.895323  368.161075
|125> H    -42.147697   36.868848  371.235363
|126> H    -42.028521   37.733946  372.801883
|127> H    -39.753181   40.583012  369.127984
|128> H    -41.232017   41.096084  370.006241
|129> C    -33.839932   34.207894  371.940715
|130> C    -34.129274   34.768779  370.577715
|131> C    -33.459917   35.682750  369.777658
|132> N    -35.248735   34.395262  369.836567
|133> C    -35.270156   35.035305  368.654073
|134> N    -34.189980   35.819891  368.604436
|135> H    -34.660649   34.436153  372.643872
|136> H    -32.909653   34.647138  372.333141
|137> H    -32.531739   36.234519  369.951781
|138> H    -36.023907   34.933847  367.874429
|139> H    -33.969932   36.427210  367.769504
|140> H    -33.719214   33.110729  371.897463
|141> H    -35.957798   33.729590  370.140772
|142> C    -33.607831   39.695786  370.356862
|143> C    -33.546315   39.169525  368.942958
|144> O    -32.412567   38.779928  368.484871
|145> O    -34.619685   39.164965  368.258331
|146> H    -34.582085   39.455851  370.810450
|147> H    -33.518625   40.797641  370.301553
|148> H    -32.784329   39.298154  370.968821
|149> C    -29.063084   41.225436  366.547868
|150> C    -30.102385   40.300681  365.932224
|151> O    -30.553600   40.467732  364.774887
|152> O    -30.471772   39.338380  366.738326
|153> H    -28.534358   41.794083  365.767113
|154> H    -28.351825   40.659425  367.170248
|155> H    -29.603359   41.933518  367.202658
|156> C    -30.495677   34.518567  367.650801
|157> C    -31.287640   35.556755  366.933972
|158> O    -31.126766   36.770070  367.320143
|159> O    -32.061673   35.174108  366.004165
|160> H    -30.785989   33.507811  367.330239
|161> H    -30.638373   34.618649  368.740897
|162> H    -29.419502   34.667169  367.449299
|163> C    -25.861543   37.415810  363.979978
|164> N    -27.146074   36.779483  363.745944
|165> C    -28.302446   37.457262  363.675816
|166> N    -28.307601   38.802707  363.797916
|167> N    -29.439028   36.807454  363.428946
|168> H    -25.654947   38.189735  363.218629
|169> H    -25.800095   37.877484  364.984956
|170> H    -27.221061   35.752870  363.818590
|171> H    -27.534789   39.269641  364.260907
|172> H    -29.199753   39.300758  363.804015
|173> H    -29.449861   35.809341  363.157397
|174> H    -30.333253   37.240676  363.685579
|175> H    -25.077065   36.647595  363.908547
|176> H    -32.764763   34.653239  359.981744
|177> O    -30.523383   37.502148  370.150545
|178> H    -30.130249   36.997909  369.412394
|179> H    -31.132314   38.103733  369.659509
|180> O    -34.698864   36.911453  360.998509
|181> H    -34.851539   36.472994  360.117933
|182> O    -37.462679   44.721832  369.035015
|183> H    -37.255055   43.751172  369.212694
|184> H    -38.030560   44.713473  368.242965
|185> O    -33.167120   34.475566  360.872749
|186> H    -32.900010   33.440102  361.306557
|187> O    -35.812969   41.554226  361.571546
|188> H    -35.095100   42.225433  361.384902
|189> H    -36.036438   41.645900  362.527087
|190> O    -38.282103   35.294412  361.051393
|191> H    -38.003691   36.007735  360.414782
|192> H    -37.673348   34.552269  360.843019
|193> O    -35.988398   33.509488  360.554212
|194> H    -35.650366   34.086338  361.283951
|195> H    -35.465208   32.676278  360.742561
|196> O    -32.717648   41.827958  363.131687
|197> H    -31.803676   42.223075  363.168859
|198> H    -33.109408   42.309574  362.313708
|199> O    -35.261240   35.434210  358.690478
|200> H    -35.436584   34.631828  359.264509
|201> H    -34.314852   35.363201  358.419925
|202> O    -36.915279   39.874101  359.339460
|203> H    -35.986978   39.936894  358.976290
|204> H    -36.839425   40.373145  360.181681
|205> O    -34.835062   45.477267  368.747308
|206> H    -35.818470   45.302539  368.729368
|207> H    -34.570791   45.698432  367.815403
|208> O    -34.127744   42.903999  369.261472
|209> H    -33.569350   42.580015  368.491677
|210> H    -34.300362   43.875202  369.064329
|211> O    -32.494457   42.101641  367.253354
|212> H    -32.736356   41.235831  366.819572
|213> H    -32.532086   42.757873  366.508703
|214> O    -34.090971   39.460267  361.435385
|215> H    -34.856306   40.099521  361.520100
|216> H    -34.460082   38.525379  361.282096
|217> O    -33.790736   46.173335  366.250048
|218> H    -32.937801   46.530982  366.562442
|219> H    -33.523120   45.352207  365.751982
|220> O    -34.245665   39.931513  358.689058
|221> H    -33.849018   40.810237  358.519323
|222> H    -34.025267   39.757697  359.646879
|223> O    -32.737446   43.856327  365.094285
|224> H    -31.865085   44.041041  364.663676
|225> H    -33.104268   43.173042  364.473785
|226> O    -36.658017   42.179566  369.504012
|227> H    -35.660760   42.363207  369.387848
|228> H    -36.758084   41.963676  370.449314
|229> C    -36.376179   33.719203  364.230246
|230> C    -35.205300   34.643607  363.960553
|231> O    -34.559038   35.138202  364.943454
|232> O    -34.923564   34.877667  362.733685
|233> H    -37.266101   34.100250  363.701225
|234> H    -36.141373   32.722584  363.816913
|235> H    -36.574059   33.644380  365.309206
|236> O    -37.514625   37.148869  359.095582
|237> H    -37.263872   38.094284  359.284208
|238> H    -36.674868   36.703232  358.833651
|239> H    -35.707677   39.698650  364.274003
|240> C    -29.705017   33.075026  363.348189
|241> H    -29.187027   32.350537  362.686631
|242> H    -30.621711   32.579049  363.719001
|243> C    -28.792197   33.419247  364.523798
|244> H    -29.245294   34.239386  365.109674
|245> C    -28.531032   32.225546  365.444250
|246> H    -29.478430   31.885706  365.899302
|247> H    -28.118103   31.382051  364.847660
|248> O    -30.039953   34.226212  362.568350
|249> H    -30.949872   34.547550  362.860379
|250> O    -27.647349   32.574949  366.516688
|251> H    -26.905719   33.058488  366.098727
|252> O    -27.515551   33.960089  364.078996
|253> H    -27.163913   33.370508  363.381660
|254> *
|255> %geom                 
|256>    Constraints
|257>       { C 11 C }
|258>       { C 18 C }
|259>       { C 36 C }
|260>       { C 45 C }
|261>       { C 50 C }
|262>       { C 62 C }
|263>       { C 69 C }
|264>       { C 81 C }
|265>       { C 91 C }
|266>       { C 96 C }
|267>       { C 99 C }
|268>       { C 115 C }
|269>       { C 128 C }
|270>       { C 135 C }
|271>       { C 142 C }
|272>       { C 149 C }
|273>       { C 215 C }  
|274>    end            
|275> end                                         ****END OF INPUT****
================================================================================

                       ****************************
                       * Single Point Calculation *
                       ****************************

---------------------------------
CARTESIAN COORDINATES (ANGSTROEM)
---------------------------------
  Ca   -32.786923   39.480822  363.575123
  O    -33.057086   39.745945  366.014558
  O    -31.705389   37.695931  364.862169
  O    -33.712606   37.356939  366.344036
  O    -32.295324   35.322227  363.377099
  O    -33.737025   37.244703  363.327156
  O    -35.029039   38.968584  364.483407
  Mn   -34.742316   38.971597  366.254448
  Mn   -32.061675   38.306403  366.534767
  Mn   -32.988543   36.343625  364.695287
  Mn   -33.438999   36.003400  362.029276
  C    -32.875113   30.227234  362.898131
  C    -33.379123   31.383762  362.027210
  O    -32.522722   32.346372  361.873161
  O    -34.539562   31.355232  361.541835
  H    -33.550633   29.359486  362.838505
  H    -32.821969   30.569016  363.948135
  H    -31.855519   29.934613  362.594665
  C    -29.225257   44.614365  356.400967
  C    -30.345668   43.550275  356.459254
  C    -31.181292   43.497683  357.733497
  C    -31.366530   42.288626  358.441533
  C    -31.864222   44.632501  358.232333
  C    -32.183224   42.210972  359.585106
  C    -32.692919   44.567812  359.364543
  C    -32.872928   43.348814  360.076287
  O    -33.645340   43.277570  361.183254
  H    -29.631167   45.636789  356.507457
  H    -31.027437   43.717350  355.599839
  H    -29.902578   42.549473  356.296263
  H    -30.846448   41.384034  358.095331
  H    -31.760452   45.595106  357.712532
  H    -32.263803   41.278869  360.158237
  H    -33.218776   45.469005  359.703601
  H    -28.487259   44.459794  357.209628
  H    -28.693445   44.562761  355.434521
  C    -29.415391   43.202243  361.215080
  C    -29.800101   44.001247  362.439895
  N    -29.208175   45.202300  362.590287
  O    -30.646031   43.589376  363.272855
  H    -28.363984   43.370738  360.929222
  H    -30.057556   43.507835  360.370827
  H    -28.519866   45.545486  361.928096
  H    -29.446535   45.789378  363.385271
  H    -29.590518   42.132236  361.401827
  C    -30.219862   34.365225  357.883357
  C    -31.284016   35.420171  358.085278
  O    -32.473606   35.090172  358.333092
  H    -30.576751   33.621674  357.151068
  N    -30.873382   36.698286  358.007740
  C    -31.665713   37.878695  358.340148
  C    -31.104188   38.584196  359.584174
  C    -31.499654   38.033716  360.957675
  O    -31.275510   38.753351  361.963151
  O    -32.046093   36.864658  360.972040
  H    -29.888198   36.855206  357.805888
  H    -32.706295   37.558891  358.500995
  H    -29.998288   38.625328  359.542077
  H    -31.433948   39.635179  359.587287
  H    -30.071978   33.840212  358.844676
  H    -29.254074   34.777854  357.549926
  H    -31.649733   38.577441  357.485633
  C    -36.337963   42.830694  366.005325
  C    -36.095558   41.447132  365.507707
  O    -36.408878   41.090504  364.341882
  O    -35.548987   40.685700  366.407997
  H    -35.398290   43.253814  366.398830
  H    -37.047155   42.792761  366.849834
  H    -36.741152   43.479258  365.212677
  C    -36.143601   48.444125  363.039910
  C    -35.117610   47.389434  362.833596
  C    -35.191974   46.131748  362.265338
  N    -33.796678   47.545640  363.225781
  C    -33.100388   46.433313  362.917101
  N    -33.934401   45.564893  362.333386
  H    -37.094922   48.137693  362.576236
  H    -35.830959   49.403377  362.590965
  H    -36.033538   45.605777  361.815094
  H    -32.041770   46.271636  363.109242
  H    -33.723186   44.570944  361.879198
  H    -36.328004   48.623274  364.114738
  C    -34.808006   51.803416  365.723829
  C    -34.353758   50.371572  365.457461
  N    -34.802026   49.418320  366.304242
  O    -33.611052   50.089925  364.486571
  H    -35.373664   51.906423  366.663227
  H    -35.440916   52.132292  364.880760
  H    -34.534085   48.442591  366.165162
  H    -35.401392   49.641607  367.092151
  H    -33.922241   52.460326  365.752000
  H    -33.470200   48.396507  363.732305
  C    -40.803981   40.323173  369.348550
  C    -40.863842   38.950391  369.945167
  O    -40.408476   37.926015  369.373328
  H    -41.347532   40.328810  368.386971
  N    -41.443829   38.856767  371.150256
  C    -41.546156   37.584363  371.824190
  H    -41.817522   39.690501  371.592880
  H    -40.547233   37.140113  371.981936
  C    -39.840339   36.699968  365.631931
  C    -38.582644   37.285159  366.186204
  C    -37.319076   37.461819  365.643952
  N    -38.516003   37.828068  367.463053
  C    -37.276448   38.309727  367.673638
  N    -36.522235   38.102709  366.583457
  H    -39.668173   36.339144  364.605084
  H    -40.650022   37.451904  365.602814
  H    -36.935539   37.201870  364.658087
  H    -36.948003   38.812739  368.581058
  H    -40.195930   35.849639  366.242141
  H    -39.306114   37.895323  368.161075
  H    -42.147697   36.868848  371.235363
  H    -42.028521   37.733946  372.801883
  H    -39.753181   40.583012  369.127984
  H    -41.232017   41.096084  370.006241
  C    -33.839932   34.207894  371.940715
  C    -34.129274   34.768779  370.577715
  C    -33.459917   35.682750  369.777658
  N    -35.248735   34.395262  369.836567
  C    -35.270156   35.035305  368.654073
  N    -34.189980   35.819891  368.604436
  H    -34.660649   34.436153  372.643872
  H    -32.909653   34.647138  372.333141
  H    -32.531739   36.234519  369.951781
  H    -36.023907   34.933847  367.874429
  H    -33.969932   36.427210  367.769504
  H    -33.719214   33.110729  371.897463
  H    -35.957798   33.729590  370.140772
  C    -33.607831   39.695786  370.356862
  C    -33.546315   39.169525  368.942958
  O    -32.412567   38.779928  368.484871
  O    -34.619685   39.164965  368.258331
  H    -34.582085   39.455851  370.810450
  H    -33.518625   40.797641  370.301553
  H    -32.784329   39.298154  370.968821
  C    -29.063084   41.225436  366.547868
  C    -30.102385   40.300681  365.932224
  O    -30.553600   40.467732  364.774887
  O    -30.471772   39.338380  366.738326
  H    -28.534358   41.794083  365.767113
  H    -28.351825   40.659425  367.170248
  H    -29.603359   41.933518  367.202658
  C    -30.495677   34.518567  367.650801
  C    -31.287640   35.556755  366.933972
  O    -31.126766   36.770070  367.320143
  O    -32.061673   35.174108  366.004165
  H    -30.785989   33.507811  367.330239
  H    -30.638373   34.618649  368.740897
  H    -29.419502   34.667169  367.449299
  C    -25.861543   37.415810  363.979978
  N    -27.146074   36.779483  363.745944
  C    -28.302446   37.457262  363.675816
  N    -28.307601   38.802707  363.797916
  N    -29.439028   36.807454  363.428946
  H    -25.654947   38.189735  363.218629
  H    -25.800095   37.877484  364.984956
  H    -27.221061   35.752870  363.818590
  H    -27.534789   39.269641  364.260907
  H    -29.199753   39.300758  363.804015
  H    -29.449861   35.809341  363.157397
  H    -30.333253   37.240676  363.685579
  H    -25.077065   36.647595  363.908547
  H    -32.764763   34.653239  359.981744
  O    -30.523383   37.502148  370.150545
  H    -30.130249   36.997909  369.412394
  H    -31.132314   38.103733  369.659509
  O    -34.698864   36.911453  360.998509
  H    -34.851539   36.472994  360.117933
  O    -37.462679   44.721832  369.035015
  H    -37.255055   43.751172  369.212694
  H    -38.030560   44.713473  368.242965
  O    -33.167120   34.475566  360.872749
  H    -32.900010   33.440102  361.306557
  O    -35.812969   41.554226  361.571546
  H    -35.095100   42.225433  361.384902
  H    -36.036438   41.645900  362.527087
  O    -38.282103   35.294412  361.051393
  H    -38.003691   36.007735  360.414782
  H    -37.673348   34.552269  360.843019
  O    -35.988398   33.509488  360.554212
  H    -35.650366   34.086338  361.283951
  H    -35.465208   32.676278  360.742561
  O    -32.717648   41.827958  363.131687
  H    -31.803676   42.223075  363.168859
  H    -33.109408   42.309574  362.313708
  O    -35.261240   35.434210  358.690478
  H    -35.436584   34.631828  359.264509
  H    -34.314852   35.363201  358.419925
  O    -36.915279   39.874101  359.339460
  H    -35.986978   39.936894  358.976290
  H    -36.839425   40.373145  360.181681
  O    -34.835062   45.477267  368.747308
  H    -35.818470   45.302539  368.729368
  H    -34.570791   45.698432  367.815403
  O    -34.127744   42.903999  369.261472
  H    -33.569350   42.580015  368.491677
  H    -34.300362   43.875202  369.064329
  O    -32.494457   42.101641  367.253354
  H    -32.736356   41.235831  366.819572
  H    -32.532086   42.757873  366.508703
  O    -34.090971   39.460267  361.435385
  H    -34.856306   40.099521  361.520100
  H    -34.460082   38.525379  361.282096
  O    -33.790736   46.173335  366.250048
  H    -32.937801   46.530982  366.562442
  H    -33.523120   45.352207  365.751982
  O    -34.245665   39.931513  358.689058
  H    -33.849018   40.810237  358.519323
  H    -34.025267   39.757697  359.646879
  O    -32.737446   43.856327  365.094285
  H    -31.865085   44.041041  364.663676
  H    -33.104268   43.173042  364.473785
  O    -36.658017   42.179566  369.504012
  H    -35.660760   42.363207  369.387848
  H    -36.758084   41.963676  370.449314
  C    -36.376179   33.719203  364.230246
  C    -35.205300   34.643607  363.960553
  O    -34.559038   35.138202  364.943454
  O    -34.923564   34.877667  362.733685
  H    -37.266101   34.100250  363.701225
  H    -36.141373   32.722584  363.816913
  H    -36.574059   33.644380  365.309206
  O    -37.514625   37.148869  359.095582
  H    -37.263872   38.094284  359.284208
  H    -36.674868   36.703232  358.833651
  H    -35.707677   39.698650  364.274003
  C    -29.705017   33.075026  363.348189
  H    -29.187027   32.350537  362.686631
  H    -30.621711   32.579049  363.719001
  C    -28.792197   33.419247  364.523798
  H    -29.245294   34.239386  365.109674
  C    -28.531032   32.225546  365.444250
  H    -29.478430   31.885706  365.899302
  H    -28.118103   31.382051  364.847660
  O    -30.039953   34.226212  362.568350
  H    -30.949872   34.547550  362.860379
  O    -27.647349   32.574949  366.516688
  H    -26.905719   33.058488  366.098727
  O    -27.515551   33.960089  364.078996
  H    -27.163913   33.370508  363.381660

----------------------------
CARTESIAN COORDINATES (A.U.)
----------------------------
  NO LB      ZA    FRAG     MASS         X           Y           Z
   0 Ca   20.0000    0    40.080  -61.958305   74.607941  687.057412
   1 O     8.0000    0    15.999  -62.468839   75.108951  691.667276
   2 O     8.0000    0    15.999  -59.914502   71.234986  689.489576
   3 O     8.0000    0    15.999  -63.707593   70.594384  692.289899
   4 O     8.0000    0    15.999  -61.029318   66.749335  686.683200
   5 O     8.0000    0    15.999  -63.753738   70.382289  686.588822
   6 O     8.0000    0    15.999  -66.195290   73.639952  688.773820
   7 Mn   25.0000    0    54.940  -65.653462   73.645645  692.120602
   8 Mn   25.0000    0    54.940  -60.587785   72.388611  692.650328
   9 Mn   25.0000    0    54.940  -62.339312   68.679498  689.174215
  10 Mn   25.0000    0    54.940  -63.190550   68.036566  684.136184
  11 C     6.0000    0    12.011  -62.124960   57.121194  685.778082
  12 C     6.0000    0    12.011  -63.077401   59.306715  684.132280
  13 O     8.0000    0    15.999  -61.459038   61.125785  683.841170
  14 O     8.0000    0    15.999  -65.270313   59.252801  683.215054
  15 H     1.0000    0     1.008  -63.401508   55.481388  685.665405
  16 H     1.0000    0     1.008  -62.024533   57.767068  687.762302
  17 H     1.0000    0     1.008  -60.198207   56.568220  685.204614
  18 C     6.0000    0    12.011  -55.227732   84.308931  673.500221
  19 C     6.0000    0    12.011  -57.345002   82.298093  673.610368
  20 C     6.0000    0    12.011  -58.924102   82.198708  676.018338
  21 C     6.0000    0    12.011  -59.274151   79.913922  677.356332
  22 C     6.0000    0    12.011  -60.214653   84.343204  676.961002
  23 C     6.0000    0    12.011  -60.817479   79.767177  679.517372
  24 C     6.0000    0    12.011  -61.780663   84.220959  679.100569
  25 C     6.0000    0    12.011  -62.120831   81.917387  680.445570
  26 O     8.0000    0    15.999  -63.580478   81.782755  682.537434
  27 H     1.0000    0     1.008  -55.994791   86.241033  673.701458
  28 H     1.0000    0     1.008  -58.633359   82.613819  671.986309
  29 H     1.0000    0     1.008  -56.507683   80.406851  673.302360
  30 H     1.0000    0     1.008  -58.291339   78.204491  676.702105
  31 H     1.0000    0     1.008  -60.018556   86.162263  675.978720
  32 H     1.0000    0     1.008  -60.969752   78.005758  680.600433
  33 H     1.0000    0     1.008  -62.774389   85.923967  679.741295
  34 H     1.0000    0     1.008  -53.833118   84.016835  675.028369
  35 H     1.0000    0     1.008  -54.222753   84.211414  671.673903
  36 C     6.0000    0    12.011  -55.587033   81.640408  682.597577
  37 C     6.0000    0    12.011  -56.314030   83.150306  684.912142
  38 N     7.0000    0    14.007  -55.195452   85.419968  685.196341
  39 O     8.0000    0    15.999  -57.912606   82.371983  686.486208
  40 H     1.0000    0     1.008  -53.600162   81.958817  682.057383
  41 H     1.0000    0     1.008  -56.800549   82.217893  681.002170
  42 H     1.0000    0     1.008  -53.894736   86.068495  683.944982
  43 H     1.0000    0     1.008  -55.645887   86.529384  686.698643
  44 H     1.0000    0     1.008  -55.917975   79.618387  682.950477
  45 C     6.0000    0    12.011  -57.107263   64.940864  676.301533
  46 C     6.0000    0    12.011  -59.118223   66.934423  676.683108
  47 O     8.0000    0    15.999  -61.366222   66.310815  677.151409
  48 H     1.0000    0     1.008  -57.781685   63.535756  674.917707
  49 N     7.0000    0    14.007  -58.342237   69.349710  676.536582
  50 C     6.0000    0    12.011  -59.839525   71.580360  677.164743
  51 C     6.0000    0    12.011  -58.778397   72.913564  679.515611
  52 C     6.0000    0    12.011  -59.525719   71.873307  682.111152
  53 O     8.0000    0    15.999  -59.102149   73.233220  684.011226
  54 O     8.0000    0    15.999  -60.558339   69.664108  682.138298
  55 H     1.0000    0     1.008  -56.480509   69.646246  676.155137
  56 H     1.0000    0     1.008  -61.805940   70.976018  677.468699
  57 H     1.0000    0     1.008  -56.688549   72.991292  679.436059
  58 H     1.0000    0     1.008  -59.401553   74.899634  679.521494
  59 H     1.0000    0     1.008  -56.827803   63.948733  678.118162
  60 H     1.0000    0     1.008  -55.282188   65.720620  675.671439
  61 H     1.0000    0     1.008  -59.809328   72.900798  675.549943
  62 C     6.0000    0    12.011  -68.668798   80.938282  691.649828
  63 C     6.0000    0    12.011  -68.210719   78.323729  690.709466
  64 O     8.0000    0    15.999  -68.802808   77.649799  688.506376
  65 O     8.0000    0    15.999  -67.177850   76.884831  692.410768
  66 H     1.0000    0     1.008  -66.893074   81.737863  692.393444
  67 H     1.0000    0     1.008  -70.008977   80.866599  693.245719
  68 H     1.0000    0     1.008  -69.430715   82.163890  690.151940
  69 C     6.0000    0    12.011  -68.301507   91.546129  686.046006
  70 C     6.0000    0    12.011  -66.362665   89.553052  685.656129
  71 C     6.0000    0    12.011  -66.503193   87.176370  684.582277
  72 N     7.0000    0    14.007  -63.866466   89.848238  686.397251
  73 C     6.0000    0    12.011  -62.550668   87.746245  685.813930
  74 N     7.0000    0    14.007  -64.126724   86.105169  684.710869
  75 H     1.0000    0     1.008  -70.099244   90.967056  685.169789
  76 H     1.0000    0     1.008  -67.710700   93.358853  685.197622
  77 H     1.0000    0     1.008  -68.093518   86.182429  683.731439
  78 H     1.0000    0     1.008  -60.550170   87.440720  686.177024
  79 H     1.0000    0     1.008  -63.727586   84.226878  683.852578
  80 H     1.0000    0     1.008  -68.649979   91.884672  688.077136
  81 C     6.0000    0    12.011  -65.777599   97.894269  691.117877
  82 C     6.0000    0    12.011  -64.919194   95.188476  690.614515
  83 N     7.0000    0    14.007  -65.766298   93.387091  692.214699
  84 O     8.0000    0    15.999  -63.515683   94.656240  688.779799
  85 H     1.0000    0     1.008  -66.846537   98.088924  692.893082
  86 H     1.0000    0     1.008  -66.973625   98.515755  689.524708
  87 H     1.0000    0     1.008  -65.259963   91.543230  691.951876
  88 H     1.0000    0     1.008  -66.898936   93.809042  693.703631
  89 H     1.0000    0     1.008  -64.103745   99.135649  691.171113
  90 H     1.0000    0     1.008  -63.249512   91.456144  687.354443
  91 C     6.0000    0    12.011  -77.108349   76.199754  697.967607
  92 C     6.0000    0    12.011  -77.221470   73.605572  699.095050
  93 O     8.0000    0    15.999  -76.360953   71.669782  698.014431
  94 H     1.0000    0     1.008  -78.135512   76.210406  696.150486
  95 N     7.0000    0    14.007  -78.317487   73.428648  701.372338
  96 C     6.0000    0    12.011  -78.510857   71.024153  702.645889
  97 H     1.0000    0     1.008  -79.023664   75.004177  702.208777
  98 H     1.0000    0     1.008  -76.623166   70.184642  702.943986
  99 C     6.0000    0    12.011  -75.287330   69.352889  690.944215
 100 C     6.0000    0    12.011  -72.910631   70.458739  691.991640
 101 C     6.0000    0    12.011  -70.522833   70.792578  690.966932
 102 N     7.0000    0    14.007  -72.784697   71.484689  694.404535
 103 C     6.0000    0    12.011  -70.442278   72.394892  694.802482
 104 N     7.0000    0    14.007  -69.017022   72.003685  692.742339
 105 H     1.0000    0     1.008  -74.961983   68.671030  689.003756
 106 H     1.0000    0     1.008  -76.817409   70.773842  690.889192
 107 H     1.0000    0     1.008  -69.798053   70.301346  689.103917
 108 H     1.0000    0     1.008  -69.821607   73.345447  696.517258
 109 H     1.0000    0     1.008  -75.959299   67.746000  692.097345
 110 H     1.0000    0     1.008  -74.277791   71.611782  695.723605
 111 H     1.0000    0     1.008  -79.647605   69.672026  701.533167
 112 H     1.0000    0     1.008  -79.422395   71.306824  704.493461
 113 H     1.0000    0     1.008  -75.122625   76.690778  697.550798
 114 H     1.0000    0     1.008  -77.917220   77.660344  699.210463
 115 C     6.0000    0    12.011  -63.948204   64.643551  702.866089
 116 C     6.0000    0    12.011  -64.494981   65.703470  700.290393
 117 C     6.0000    0    12.011  -63.230080   67.430625  698.778504
 118 N     7.0000    0    14.007  -66.610456   64.997625  698.889826
 119 C     6.0000    0    12.011  -66.650936   66.207131  696.655236
 120 N     7.0000    0    14.007  -64.609699   67.689784  696.561436
 121 H     1.0000    0     1.008  -65.499134   65.074898  704.194864
 122 H     1.0000    0     1.008  -62.190231   65.473602  703.607667
 123 H     1.0000    0     1.008  -61.476077   68.473318  699.107549
 124 H     1.0000    0     1.008  -68.075319   66.015404  695.181922
 125 H     1.0000    0     1.008  -64.193868   68.837451  694.983643
 126 H     1.0000    0     1.008  -63.720080   62.570210  702.784355
 127 H     1.0000    0     1.008  -67.950391   63.739688  699.464690
 128 C     6.0000    0    12.011  -63.509597   75.014164  699.873041
 129 C     6.0000    0    12.011  -63.393348   74.019675  697.201150
 130 O     8.0000    0    15.999  -61.250875   73.283443  696.335491
 131 O     8.0000    0    15.999  -65.421723   74.011058  695.907392
 132 H     1.0000    0     1.008  -65.350670   74.560753  700.730198
 133 H     1.0000    0     1.008  -63.341022   77.096368  699.768522
 134 H     1.0000    0     1.008  -61.953403   74.262749  701.029476
 135 C     6.0000    0    12.011  -54.921269   77.904784  692.675085
 136 C     6.0000    0    12.011  -56.885264   76.157250  691.511687
 137 O     8.0000    0    15.999  -57.737936   76.472931  689.324637
 138 O     8.0000    0    15.999  -57.583304   74.338765  693.034999
 139 H     1.0000    0     1.008  -53.922122   78.979371  691.199672
 140 H     1.0000    0     1.008  -53.577185   76.835178  693.851213
 141 H     1.0000    0     1.008  -55.942241   79.242865  693.912459
 142 C     6.0000    0    12.011  -57.628478   65.230638  694.759327
 143 C     6.0000    0    12.011  -59.125071   67.192529  693.404716
 144 O     8.0000    0    15.999  -58.821063   69.485362  694.134474
 145 O     8.0000    0    15.999  -60.587781   66.469431  691.647636
 146 H     1.0000    0     1.008  -58.177088   63.320586  694.153552
 147 H     1.0000    0     1.008  -57.898134   65.419766  696.819310
 148 H     1.0000    0     1.008  -55.594802   65.511455  694.378543
 149 C     6.0000    0    12.011  -48.871234   70.705634  687.822477
 150 N     7.0000    0    14.007  -51.298645   69.503150  687.380216
 151 C     6.0000    0    12.011  -53.483872   70.783967  687.247694
 152 N     7.0000    0    14.007  -53.493613   73.326489  687.478429
 153 N     7.0000    0    14.007  -55.631701   69.556008  686.781177
 154 H     1.0000    0     1.008  -48.480824   72.168140  686.383736
 155 H     1.0000    0     1.008  -48.755114   71.578071  689.721610
 156 H     1.0000    0     1.008  -51.440350   67.563133  687.517498
 157 H     1.0000    0     1.008  -52.033210   74.208867  688.353356
 158 H     1.0000    0     1.008  -55.179536   74.267669  687.489955
 159 H     1.0000    0     1.008  -55.652172   67.669848  686.268024
 160 H     1.0000    0     1.008  -57.321541   70.374679  687.266143
 161 H     1.0000    0     1.008  -47.388785   69.253918  687.687492
 162 H     1.0000    0     1.008  -61.916429   65.485131  680.266909
 163 O     8.0000    0    15.999  -57.680835   70.868789  699.483158
 164 H     1.0000    0     1.008  -56.937919   69.915916  698.088255
 165 H     1.0000    0     1.008  -58.831547   72.005620  698.555235
 166 O     8.0000    0    15.999  -65.571350   69.752537  682.188317
 167 H     1.0000    0     1.008  -65.859864   68.923970  680.524269
 168 O     8.0000    0    15.999  -70.794204   84.512015  697.375112
 169 H     1.0000    0     1.008  -70.401851   82.677733  697.710877
 170 H     1.0000    0     1.008  -71.867343   84.496218  695.878355
 171 O     8.0000    0    15.999  -62.676773   65.149378  681.950665
 172 H     1.0000    0     1.008  -62.172009   63.192635  682.770443
 173 O     8.0000    0    15.999  -67.676703   78.526107  683.271200
 174 H     1.0000    0     1.008  -66.320128   79.794504  682.918494
 175 H     1.0000    0     1.008  -68.098999   78.699346  685.076911
 176 O     8.0000    0    15.999  -72.342691   66.696773  682.288253
 177 H     1.0000    0     1.008  -71.816568   68.044758  681.085233
 178 H     1.0000    0     1.008  -71.192310   65.294326  681.894483
 179 O     8.0000    0    15.999  -68.008216   63.323755  681.348717
 180 H     1.0000    0     1.008  -67.369428   64.413844  682.727724
 181 H     1.0000    0     1.008  -67.019530   61.749216  681.704645
 182 O     8.0000    0    15.999  -61.827394   79.043385  686.219439
 183 H     1.0000    0     1.008  -60.100238   79.790048  686.289684
 184 H     1.0000    0     1.008  -62.567714   79.953508  684.673683
 185 O     8.0000    0    15.999  -66.634087   66.960953  677.826770
 186 H     1.0000    0     1.008  -66.965439   65.444670  678.911532
 187 H     1.0000    0     1.008  -64.845673   66.826765  677.315499
 188 O     8.0000    0    15.999  -69.759767   75.351131  679.053169
 189 H     1.0000    0     1.008  -68.005533   75.469792  678.366877
 190 H     1.0000    0     1.008  -69.616424   76.294187  680.644736
 191 O     8.0000    0    15.999  -65.828727   85.939580  696.831425
 192 H     1.0000    0     1.008  -67.687099   85.609392  696.797523
 193 H     1.0000    0     1.008  -65.329327   86.357521  695.070380
 194 O     8.0000    0    15.999  -64.492090   81.076808  697.803054
 195 H     1.0000    0     1.008  -63.436878   80.464567  696.348352
 196 H     1.0000    0     1.008  -64.818290   82.912116  697.430508
 197 O     8.0000    0    15.999  -61.405625   79.560571  694.008261
 198 H     1.0000    0     1.008  -61.862747   77.924427  693.188532
 199 H     1.0000    0     1.008  -61.476733   80.800670  692.601074
 200 O     8.0000    0    15.999  -64.422599   74.569098  683.013893
 201 H     1.0000    0     1.008  -65.868872   75.777113  683.173981
 202 H     1.0000    0     1.008  -65.120118   72.802416  682.724219
 203 O     8.0000    0    15.999  -63.855237   87.254958  692.112287
 204 H     1.0000    0     1.008  -62.243423   87.930813  692.702626
 205 H     1.0000    0     1.008  -63.349516   85.703251  691.171079
 206 O     8.0000    0    15.999  -64.714928   75.459624  677.824087
 207 H     1.0000    0     1.008  -63.965374   77.120171  677.503334
 208 H     1.0000    0     1.008  -64.298436   75.131159  679.634106
 209 O     8.0000    0    15.999  -61.864807   82.876447  689.928212
 210 H     1.0000    0     1.008  -60.216284   83.225506  689.114479
 211 H     1.0000    0     1.008  -62.558000   81.585226  688.755637
 212 O     8.0000    0    15.999  -69.273613   79.707828  698.261388
 213 H     1.0000    0     1.008  -67.389070   80.054859  698.041870
 214 H     1.0000    0     1.008  -69.462712   79.299855  700.047750
 215 C     6.0000    0    12.011  -68.741016   63.720059  688.295415
 216 C     6.0000    0    12.011  -66.528375   65.466930  687.785769
 217 O     8.0000    0    15.999  -65.307117   66.401579  689.643182
 218 O     8.0000    0    15.999  -65.995972   65.909239  685.467324
 219 H     1.0000    0     1.008  -70.422725   64.440134  687.295710
 220 H     1.0000    0     1.008  -68.297297   61.836722  687.514328
 221 H     1.0000    0     1.008  -69.114955   63.578664  690.334354
 222 O     8.0000    0    15.999  -70.892367   70.201189  678.592306
 223 H     1.0000    0     1.008  -70.418513   71.987764  678.948757
 224 H     1.0000    0     1.008  -69.305457   69.359057  678.097328
 225 H     1.0000    0     1.008  -67.477730   75.019576  688.378103
 226 C     6.0000    0    12.011  -56.134347   62.502741  686.628568
 227 H     1.0000    0     1.008  -55.155488   61.133655  685.378405
 228 H     1.0000    0     1.008  -57.866648   61.565480  687.329302
 229 C     6.0000    0    12.011  -54.409367   63.153224  688.850148
 230 H     1.0000    0     1.008  -55.265596   64.703063  689.957293
 231 C     6.0000    0    12.011  -53.915837   60.897456  690.589550
 232 H     1.0000    0     1.008  -55.706160   60.255252  691.449473
 233 H     1.0000    0     1.008  -53.135514   59.303482  689.462158
 234 O     8.0000    0    15.999  -56.767284   64.678167  685.154886
 235 H     1.0000    0     1.008  -58.486782   65.285408  685.706741
 236 O     8.0000    0    15.999  -52.245918   61.557732  692.616164
 237 H     1.0000    0     1.008  -50.844440   62.471489  691.826332
 238 O     8.0000    0    15.999  -51.996856   64.175268  688.009594
 239 H     1.0000    0     1.008  -51.332356   63.061121  686.691819

--------------------------------
INTERNAL COORDINATES (ANGSTROEM)
--------------------------------
 Ca     0   0   0     0.000000000000     0.00000000     0.00000000
 O      1   0   0     2.468627426511     0.00000000     0.00000000
 O      1   2   0     2.451945978433    66.90550059     0.00000000
 O      2   1   3     2.499122224086    93.22857202   313.08023787
 O      3   1   2     2.861455379478   103.91634300   138.98729744
 O      5   3   1     2.403520344667    58.05739653   332.48403024
 O      6   5   3     2.444991258340   150.58625899   308.68838859
 Mn     7   6   5     1.794102945926   112.55438068     7.98988614
 Mn     3   1   2     1.815819331923    98.75587998   357.26413139
 Mn     6   5   3     1.801096693565    48.30083844   311.13991521
 Mn     6   5   3     1.820479367882    51.04057940   149.61607500
 C      5   3   1     5.150196044773   153.14191188   201.81721001
 C     12   5   3     1.532999179101    48.96737870   161.12757262
 O     13  12   5     1.297602319396   114.21221543    39.88532978
 O     13  12   5     1.258181832744   120.35064745   220.65308852
 H     12   5   3     1.101303374089   148.60211517   101.44036953
 H     12   5   3     1.105507856271    66.44735115    13.42890036
 H     12   5   3     1.103308926653   100.59840139   268.94775609
 C      1   2   3     9.513529457606   136.73591283   237.59346657
 C     19   1   2     1.546287719472    47.85364387   208.63389933
 C     20  19   1     1.524706073605   116.89458172    33.64416716
 C     21  20  19     1.413310625160   121.33370359   232.15887164
 C     21  20  19     1.415288886737   122.09761385    55.38091370
 C     22  21  20     1.407401307261   122.02723988   182.90226801
 C     23  21  20     1.404572130092   122.13283186   176.43832644
 C     24  22  21     1.418321119966   121.28602498     0.58391217
 O     26  24  22     1.351692252093   121.27918442   180.75060513
 H     19   1   2     1.105194048109   106.79999969   312.73429221
 H     20  19   1     1.109647316588   108.20249748   156.29122144
 H     20  19   1     1.106571035851   109.06829300   270.63977551
 H     22  21  20     1.099376094879   118.95629189     3.68523865
 H     23  21  20     1.098894753162   119.34667384   357.45951128
 H     24  22  21     1.097172785395   120.92663887   183.94386342
 H     25  23  21     1.097102882624   119.60936451   181.23117043
 H     19   1   2     1.105651778349    67.84659076    55.44024500
 H     19   1   2     1.104311933774   144.59063618   145.94902952
 C     24  22  21     3.361596786054    84.25665551   274.36459045
 C     37  24  22     1.512144490563   109.82101003   149.99132473
 N     38  37  24     1.347413244684   116.72041874   231.22758737
 O     38  37  24     1.256605605248   122.34328724    49.99654759
 H     37  24  22     1.102525301677   134.79247781   353.80679079
 H     37  24  22     1.103868418652    39.80783268    53.82216599
 H     39  38  37     1.014910257391   121.77094001   358.46661951
 H     39  38  37     1.016600033415   119.93671765   178.63175384
 H     37  24  22     1.100208565767    70.39435867   254.50713993
 C     14  13  12     5.029658792962   133.95704827   118.99815770
 C     46  14  13     1.511987727752    81.48184171   101.34529523
 O     47  46  14     1.259140773185   120.55451797   316.58050731
 H     46  14  13     1.102943800673    96.19568895   352.63987258
 N     47  46  14     1.344697131932   116.13887983   135.41587072
 C     50  47  46     1.460016746242   126.12920864   188.72066635
 C     51  50  47     1.536438308329   110.93134722   112.66710166
 C     52  51  50     1.531641793814   117.81947700   277.86321987
 O     53  52  51     1.256621284452   117.75238700   194.22211746
 O     53  52  51     1.290541956431   116.41567034    13.77148965
 H     50  47  46     1.017819055707   116.97205561     0.94148601
 H     51  50  47     1.100435029681   108.14890386   350.54195051
 H     52  51  50     1.107465037296   110.56268799    42.37643711
 H     52  51  50     1.101506520479   109.32913754   157.84144669
 H     46  14  13     1.105279397884    34.98148615   240.79222508
 H     46  14  13     1.101900805130   142.33938908   218.81735442
 H     51  50  47     1.103946202557   109.12610029   233.16580295
 C      8   7   6     4.183393511630    83.21218864   161.39898854
 C     63   8   7     1.490177058538    26.02000978    19.18596623
 O     64  63   8     1.258769591073   122.12921855   189.25374881
 O     64  63   8     1.299630960221   112.39897432     9.77560805
 H     63   8   7     1.103114711331    90.44006315   240.44256112
 H     63   8   7     1.103443544743    99.66318305   133.39825612
 H     63   8   7     1.100675921296   136.56611773     0.90003270
 C     34  25  23     5.341993826139   155.91285177   189.69771634
 C     70  34  25     1.485798137083    30.66818363    34.40910877
 C     71  70  34     1.382107533319   131.75011408   295.09080976
 N     71  70  34     1.386748260242   122.58361710   114.91241746
 C     73  71  70     1.348100315788   109.52913717   179.85377839
 N     74  73  71     1.338078540966   108.26766991     0.16106334
 H     70  34  25     1.101773930505    93.15387186   269.28117530
 H     70  34  25     1.104292095731    94.29355998   160.59035247
 H     72  71  70     1.089768378360   130.58807541     0.70311259
 H     74  73  71     1.087993421917   125.78367968   180.09285205
 H     75  74  73     1.113028809227   129.73980362   175.43669583
 H     70  34  25     1.105148885985   142.09652529    34.49671318
 C     81  70  34     3.874644616794   118.13068057   103.84693967
 C     82  81  70     1.525604928304    43.44639077   272.77167470
 N     83  82  81     1.351544167717   116.98860971   281.22926753
 O     83  82  81     1.254418043216   121.47653279   100.37829553
 H     82  81  70     1.101384591057   103.26721532   163.31011072
 H     82  81  70     1.104309662295    72.69558968    57.01813890
 H     84  83  82     1.021363161330   120.09720706   179.45665477
 H     84  83  82     1.014838548049   121.81189940   359.01552182
 H     82  81  70     1.103133712913   144.52363688   320.78956736
 H     73  71  70     1.042654832027   121.84158116     3.28356753
 C     68  63   8     5.143557925471   149.06311574   311.71350913
 C     92  68  63     1.498020561786   131.50277238    57.58536089
 O     93  92  68     1.258453108087   123.40208850   317.23566584
 H     92  68  63     1.104587542303    86.21949036   304.91504662
 N     93  92  68     1.340667696137   116.05774545   137.37991683
 C     96  93  92     1.443492220450   120.78961755   180.53111037
 H     96  93  92     1.015221575017   119.58978854     0.68520813
 H     97  96  93     1.104576399777   110.92150703    58.64196565
 C     94  93  92     3.977941981551   136.88138870   331.12880270
 C    100  94  93     1.493808481043    69.54474728    96.47930534
 C    101 100  94     1.386308074610   132.23569415   179.95509993
 N    101 100  94     1.389076878349   122.31481226   357.96917972
 C    103 101 100     1.346416738061   109.13240782   181.71937603
 N    104 103 101     1.341710965318   109.58675860   359.90500472
 H    100  94  93     1.101930057645   178.56721401   169.42421418
 H    100  94  93     1.105369670415    73.17167532   335.53264692
 H    102 101 100     1.089313504550   130.12893048   359.61114582
 H    104 103 101     1.088259273597   125.00294912   178.43238671
 H    100  94  93     1.105378040139    70.84897963   219.47631490
 H    103 101 100     1.056424791374   126.60948066   359.66352624
 H     97  96  93     1.104776233377   111.14035111   298.54874282
 H     97  96  93     1.100424767698   109.02973105   178.57635246
 H     92  68  63     1.104692856081    25.21833033    90.97709176
 H     92  68  63     1.101437098839   103.70944808   196.30410575
 C      4   2   1     6.423045395398   126.06806381   164.42411582
 C    116   4   2     1.502025224884    14.08120081   137.49527015
 C    117 116   4     1.386893285563   132.57773158   358.06969355
 N    117 116 118     1.393559556572   122.49794931   179.70533870
 C    119 117 116     1.344769854334   110.66399570   180.28687845
 N    120 119 117     1.335971262468   107.41593936     0.00000000
 H    116   4   2     1.104585140140   117.91074747    74.21446015
 H    116   4   2     1.101068787521    95.63669230   319.73339694
 H    118 117 116     1.093746884875   130.55568655   359.87484116
 H    120 119 117     1.089164387272   126.59303448   179.73551973
 H    121 120 119     1.055636743719   122.39765936   179.54784745
 H    116   4   2     1.104633246038   116.78695780   205.67811364
 H    119 117 116     1.019033969786   125.11929390     0.26001555
 C    124 118 117     3.647250177094   104.24410016   249.41224041
 C    129 124 118     1.509920322266    63.46237961   282.00730477
 O    130 129 124     1.283360451893   118.42733457   298.52351218
 O    130 129 124     1.273129247024   118.06384805   120.09142853
 H    129 124 118     1.101127483303    95.73972935    31.78162263
 H    129 124 118     1.106842914303   156.26285657   210.14333234
 H    129 124 118     1.100345658922    59.86863177   142.47806714
 C      9   3   1     4.184790708813    95.55476672   282.01634187
 C    136   9   3     1.521294157407    23.82253835    28.12676330
 O    137 136   9     1.253367441892   122.58853049   162.65182578
 O    137 136   9     1.308537506063   112.99087523   343.22843000
 H    136   9   3     1.101130765945   134.59268671    25.13151523
 H    136   9   3     1.101641811844    96.08539588   257.70687305
 H    136   9   3     1.105453363308    95.64980608   148.81207603
 C    124 118 117     3.519168750507    98.10037892   108.88523603
 C    143 124 118     1.489591733313    70.56143950    82.03915142
 O    144 143 124     1.283410212809   116.58047968    58.84710533
 O    144 143 124     1.268891984744   117.82490714   239.07658708
 H    143 124 118     1.099394717435   119.08834583   338.11726995
 H    143 124 118     1.103941956969    40.12574331   251.63874567
 H    143 124 118     1.104915490448   128.11020062   182.20408423
 C    141 136   9     5.186556215896   106.48756341    82.51544570
 N    150 141 136     1.452481963415    87.04610368   296.16711525
 C    151 150 141     1.342199132621   123.30660949    36.71741805
 N    152 151 150     1.350983801550   120.09739920     1.37573771
 N    152 151 150     1.332296467190   119.89255410   178.53064331
 H    150 141 136     1.105121763717    94.33323313    47.18946369
 H    150 141 136     1.107654964086    37.61659476   162.78680690
 H    151 150 141     1.031908301766   119.25980454   229.21057428
 H    153 152 151     1.014705087097   119.77613951   338.08256520
 H    153 152 151     1.021776486080   119.29517960   183.97773451
 H    154 152 151     1.034449502904   121.88244499   351.31838476
 H    154 152 151     1.026245657042   119.41439076   159.21658768
 H    150 141 136     1.100301052653   144.97435292   177.83812514
 H     48  47  46     1.730241677409   114.37422206    79.69585145
 O    124 118 117     2.383250769867   175.36802521   174.33042761
 H    164 124 118     0.976564493456    90.08978671   300.30320665
 H    164 124 118     0.986822085425    76.27599088    41.38336042
 O     11   6   5     1.863947605842    87.21574362   177.69329002
 H    167  11   6     0.995474782243   112.22622064   181.61669372
 O     68  63   8     2.944315051141   129.50847062   131.82886468
 H    169  68  63     1.008393964687    58.06510119   235.36501939
 H    169  68  63     0.974629111787    58.22891066    97.69101753
 O    163  48  47     0.993654245904   165.39892066   154.08893422
 H    172 163  48     1.154002958514   113.81574077   132.25304252
 O     27  26  24     2.796301253664   126.09809963   302.91795505
 H    174  27  26     1.000345300757     5.30909882   278.92606299
 H    174  27  26     0.985596833862   104.65868544   169.87805688
 O    168 167  11     3.745553692102    93.36011242   109.32353692
 H    177 168 167     0.995799432313    50.14846207   108.61814441
 H    177 168 167     0.982231442355    67.49472671   240.94939850
 O    179 177 168     2.002463033294   161.00631927    20.93356075
 H    180 179 177     0.989717416056    82.96547073    33.51241632
 H    180 179 177     1.001719534601   147.72630754   130.47376065
 O      1   2   3     2.389661464354    94.64931456   213.12635753
 H    183   1   2     0.996415585013   114.15144883    89.22934351
 H    183   1   2     1.026898005401   126.68442192   216.00692194
 O    168 167  11     1.812334098637   169.68909106    67.64251833
 H    186 168 167     1.002034920160    92.71233160   346.39308610
 H    186 168 167     0.986859387367    92.31451305   240.74780102
 O    174  27  26     3.003350672686   121.74071795   351.36390569
 H    189 174  27     0.998788344120    83.91176897    26.93421524
 H    189 174  27     0.981903740747    18.16813334   202.01084372
 O    169  68  63     2.749150497111    88.13631856   332.36400637
 H    192 169  68     0.998970976579     9.21823000    82.42801997
 H    192 169  68     0.993579411870   114.42763987    50.86496786
 O    134 129 124     2.426837132336   149.90777814   106.73464869
 H    195 134 129     1.004666030837    84.77808477   288.59228938
 H    195 134 129     1.005931212152   164.80558753   158.31853476
 O    196 195 134     1.708121921191   174.59226582   269.82420259
 H    198 196 195     0.998152746740   113.92113001   149.64730786
 H    198 196 195     0.993258018476   109.55046245   265.36416234
 O      1   2   3     2.505881562040   141.97280897   129.80957838
 H    201   1   2     1.000779681032   108.68989918    33.18782775
 H    201   1   2     1.016737931025   108.97771011   274.74234313
 O    194 192 169     1.812278935059   169.40420325   177.91966624
 H    204 194 192     0.976216933919   101.28391187   351.92363989
 H    204 194 192     0.996965022554   109.34310702   100.31176758
 O    190 189 174     1.764851875075   167.42641921    51.09292828
 H    207 190 189     0.978925268348   115.16740036   245.72356220
 H    207 190 189     0.998102373658    93.56723645   352.43172281
 O    200 198 196     1.802595960952   174.37320936   274.05268137
 H    210 200 198     0.990230825110   110.76401648   226.53269849
 H    210 200 198     0.993205427346    96.49183930   330.36419456
 O    170 169  68     1.706243232896   171.39901837    88.57976104
 H    213 170 169     1.020656463177    99.01730829   354.56651984
 H    213 170 169     0.974791140600   109.49034741   103.54661248
 C    181 180 179     3.056508931153   124.02954936    75.36961750
 C    216 181 180     1.515986379261    64.65076709   166.29129970
 O    217 216 181     1.276077255682   119.37136744   183.98582621
 O    217 216 181     1.280376642524   116.86463948     3.81183258
 H    216 181 180     1.103186838543    71.80950816   288.74954600
 H    216 181 180     1.104186332865    72.36709060    44.85233658
 H    216 181 180     1.099504277995   175.44461868   168.76189113
 O    178 177 168     1.811535536033   172.86993665    95.34479624
 H    223 178 177     0.996125673352   121.86517099   182.05566526
 H    223 178 177     0.986099388287    97.97059161   295.75353199
 H      7   6   5     1.018526354404   139.48594627   189.11566692
 C    160 154 152     2.752813958629   160.24839183   100.76217659
 H    227 160 154     1.109439921125   124.33494186   205.96959599
 H    227 160 154     1.106265164194   123.04921150    55.60867199
 C    227 160 154     1.527673057340    76.94666069   310.34005000
 H    230 227 160     1.105068123740   109.28221679    50.26061169
 C    230 227 160     1.529823884939   112.90482098   172.09559406
 H    232 230 227     1.104593372562   109.96885104   297.34614335
 H    232 230 227     1.112615747761   109.40776106    55.58628087
 O    227 160 154     1.430230819348    35.35618348   134.28887541
 H    235 227 160     1.008212097550   108.05656701   265.83685381
 O    232 230 227     1.432864740561   111.42838384   178.62685319
 H    237 232 230     0.979038517599   105.55038402   312.93394780
 O    230 227 160     1.456085127142   111.87006867   295.36257158
 H    239 230 227     0.978535914262   107.99688600   311.47275176

---------------------------
INTERNAL COORDINATES (A.U.)
---------------------------
 Ca     0   0   0     0.000000000000     0.00000000     0.00000000
 O      1   0   0     4.665029762793     0.00000000     0.00000000
 O      1   2   0     4.633506394408    66.90550059     0.00000000
 O      2   1   3     4.722656578719    93.22857202   313.08023787
 O      3   1   2     5.407367011648   103.91634300   138.98729744
 O      5   3   1     4.541995208728    58.05739653   332.48403024
 O      6   5   3     4.620363878094   150.58625899   308.68838859
 Mn     7   6   5     3.390363223861   112.55438068     7.98988614
 Mn     3   1   2     3.431401246014    98.75587998   357.26413139
 Mn     6   5   3     3.403579491548    48.30083844   311.13991521
 Mn     6   5   3     3.440207437752    51.04057940   149.61607500
 C      5   3   1     9.732460060625   153.14191188   201.81721001
 C     12   5   3     2.896948612027    48.96737870   161.12757262
 O     13  12   5     2.452113014400   114.21221543    39.88532978
 O     13  12   5     2.377619090561   120.35064745   220.65308852
 H     12   5   3     2.081161767392   148.60211517   101.44036953
 H     12   5   3     2.089107087250    66.44735115    13.42890036
 H     12   5   3     2.084951712485   100.59840139   268.94775609
 C      1   2   3    17.977965241868   136.73591283   237.59346657
 C     19   1   2     2.922060314048    47.85364387   208.63389933
 C     20  19   1     2.881276913840   116.89458172    33.64416716
 C     21  20  19     2.670770023713   121.33370359   232.15887164
 C     21  20  19     2.674508396314   122.09761385    55.38091370
 C     22  21  20     2.659603031247   122.02723988   182.90226801
 C     23  21  20     2.654256661212   122.13283186   176.43832644
 C     24  22  21     2.680238486692   121.28602498     0.58391217
 O     26  24  22     2.554328173800   121.27918442   180.75060513
 H     19   1   2     2.088514075766   106.79999969   312.73429221
 H     20  19   1     2.096929533592   108.20249748   156.29122144
 H     20  19   1     2.091116205488   109.06829300   270.63977551
 H     22  21  20     2.077519737502   118.95629189     3.68523865
 H     23  21  20     2.076610133478   119.34667384   357.45951128
 H     24  22  21     2.073356085988   120.92663887   183.94386342
 H     25  23  21     2.073223988895   119.60936451   181.23117043
 H     19   1   2     2.089379060562    67.84659076    55.44024500
 H     19   1   2     2.086847121254   144.59063618   145.94902952
 C     24  22  21     6.352497298311    84.25665551   274.36459045
 C     37  24  22     2.857538962083   109.82101003   149.99132473
 N     38  37  24     2.546242021670   116.72041874   231.22758737
 O     38  37  24     2.374640452269   122.34328724    49.99654759
 H     37  24  22     2.083470875888   134.79247781   353.80679079
 H     37  24  22     2.086008999138    39.80783268    53.82216599
 H     39  38  37     1.917902436977   121.77094001   358.46661951
 H     39  38  37     1.921095650890   119.93671765   178.63175384
 H     37  24  22     2.079092879494    70.39435867   254.50713993
 C     14  13  12     9.504677665768   133.95704827   118.99815770
 C     46  14  13     2.857242723301    81.48184171   101.34529523
 O     47  46  14     2.379431225374   120.55451797   316.58050731
 H     46  14  13     2.084261724378    96.19568895   352.63987258
 N     47  46  14     2.541109312420   116.13887983   135.41587072
 C     50  47  46     2.759031801335   126.12920864   188.72066635
 C     51  50  47     2.903447624408   110.93134722   112.66710166
 C     52  51  50     2.894383525576   117.81947700   277.86321987
 O     53  52  51     2.374670081670   117.75238700   194.22211746
 O     53  52  51     2.438770861990   116.41567034    13.77148965
 H     50  47  46     1.923399269172   116.97205561     0.94148601
 H     51  50  47     2.079520834271   108.14890386   350.54195051
 H     52  51  50     2.092805623382   110.56268799    42.37643711
 H     52  51  50     2.081545658434   109.32913754   157.84144669
 H     46  14  13     2.088675363465    34.98148615   240.79222508
 H     46  14  13     2.082290748443   142.33938908   218.81735442
 H     51  50  47     2.086155989416   109.12610029   233.16580295
 C      8   7   6     7.905468047404    83.21218864   161.39898854
 C     63   8   7     2.816026531689    26.02000978    19.18596623
 O     64  63   8     2.378729792835   122.12921855   189.25374881
 O     64  63   8     2.455946589983   112.39897432     9.77560805
 H     63   8   7     2.084584698714    90.44006315   240.44256112
 H     63   8   7     2.085206103807    99.66318305   133.39825612
 H     63   8   7     2.079976053451   136.56611773     0.90003270
 C     34  25  23    10.094905340501   155.91285177   189.69771634
 C     70  34  25     2.807751569376    30.66818363    34.40910877
 C     71  70  34     2.611804725602   131.75011408   295.09080976
 N     71  70  34     2.620574428550   122.58361710   114.91241746
 C     73  71  70     2.547540397893   109.52913717   179.85377839
 N     74  73  71     2.528601988103   108.26766991     0.16106334
 H     70  34  25     2.082050990149    93.15387186   269.28117530
 H     70  34  25     2.086809632785    94.29355998   160.59035247
 H     72  71  70     2.059363784508   130.58807541     0.70311259
 H     74  73  71     2.056009602930   125.78367968   180.09285205
 H     75  74  73     2.103319628604   129.73980362   175.43669583
 H     70  34  25     2.088428731720   142.09652529    34.49671318
 C     81  70  34     7.322017192013   118.13068057   103.84693967
 C     82  81  70     2.882975503054    43.44639077   272.77167470
 N     83  82  81     2.554048334883   116.98860971   281.22926753
 O     83  82  81     2.370506559127   121.47653279   100.37829553
 H     82  81  70     2.081315245218   103.26721532   163.31011072
 H     82  81  70     2.086842828780    72.69558968    57.01813890
 H     84  83  82     1.930096658190   120.09720706   179.45665477
 H     84  83  82     1.917766925959   121.81189940   359.01552182
 H     82  81  70     2.084620606502   144.52363688   320.78956736
 H     73  71  70     1.970332084740   121.84158116     3.28356753
 C     68  63   8     9.719915833100   149.06311574   311.71350913
 C     92  68  63     2.830848604759   131.50277238    57.58536089
 O     93  92  68     2.378131726666   123.40208850   317.23566584
 H     92  68  63     2.087367945894    86.21949036   304.91504662
 N     93  92  68     2.533494782295   116.05774545   137.37991683
 C     96  93  92     2.727804973097   120.78961755   180.53111037
 H     96  93  92     1.918490742031   119.58978854     0.68520813
 H     97  96  93     2.087346889572   110.92150703    58.64196565
 C     94  93  92     7.517220921760   136.88138870   331.12880270
 C    100  94  93     2.822888925700    69.54474728    96.47930534
 C    101 100  94     2.619742598256   132.23569415   179.95509993
 N    101 100  94     2.624974879041   122.31481226   357.96917972
 C    103 101 100     2.544358897063   109.13240782   181.71937603
 N    104 103 101     2.535466275330   109.58675860   359.90500472
 H    100  94  93     2.082346027685   178.56721401   169.42421418
 H    100  94  93     2.088845953828    73.17167532   335.53264692
 H    102 101 100     2.058504197581   130.12893048   359.61114582
 H    104 103 101     2.056511989798   125.00294912   178.43238671
 H    100  94  93     2.088861770314    70.84897963   219.47631490
 H    103 101 100     1.996353536782   126.60948066   359.66352624
 H     97  96  93     2.087724520348   111.14035111   298.54874282
 H     97  96  93     2.079501441933   109.02973105   178.57635246
 H     92  68  63     2.087566960093    25.21833033    90.97709176
 H     92  68  63     2.081414470546   103.70944808   196.30410575
 C      4   2   1    12.137796743046   126.06806381   164.42411582
 C    116   4   2     2.838416321273    14.08120081   137.49527015
 C    117 116   4     2.620848486688   132.57773158   358.06969355
 N    117 116 118     2.633445913230   122.49794931   179.70533870
 C    119 117 116     2.541246737845   110.66399570   180.28687845
 N    120 119 117     2.524619808854   107.41593936     0.00000000
 H    116   4   2     2.087363406464   117.91074747    74.21446015
 H    116   4   2     2.080718463023    95.63669230   319.73339694
 H    118 117 116     2.066882072243   130.55568655   359.87484116
 H    120 119 117     2.058222406764   126.59303448   179.73551973
 H    121 120 119     1.994864342533   122.39765936   179.54784745
 H    116   4   2     2.087454313437   116.78695780   205.67811364
 H    119 117 116     1.925695124058   125.11929390     0.26001555
 C    124 118 117     6.892303976604   104.24410016   249.41224041
 C    129 124 118     2.853335893126    63.46237961   282.00730477
 O    130 129 124     2.425199785182   118.42733457   298.52351218
 O    130 129 124     2.405865609962   118.06384805   120.09142853
 H    129 124 118     2.080829381976    95.73972935    31.78162263
 H    129 124 118     2.091629981303   156.26285657   210.14333234
 H    129 124 118     2.079351948012    59.86863177   142.47806714
 C      9   3   1     7.908108367436    95.55476672   282.01634187
 C    136   9   3     2.874829326635    23.82253835    28.12676330
 O    137 136   9     2.368521210349   122.58853049   162.65182578
 O    137 136   9     2.472777522424   112.99087523   343.22843000
 H    136   9   3     2.080835585270   134.59268671    25.13151523
 H    136   9   3     2.081801322061    96.08539588   257.70687305
 H    136   9   3     2.089004110474    95.64980608   148.81207603
 C    124 118 117     6.650265157513    98.10037892   108.88523603
 C    143 124 118     2.814920427314    70.56143950    82.03915142
 O    144 143 124     2.425293819686   116.58047968    58.84710533
 O    144 143 124     2.397858344693   117.82490714   239.07658708
 H    143 124 118     2.077554929032   119.08834583   338.11726995
 H    143 124 118     2.086147966416    40.12574331   251.63874567
 H    143 124 118     2.087987678075   128.11020062   182.20408423
 C    141 136   9     9.801170826230   106.48756341    82.51544570
 N    150 141 136     2.744793125315    87.04610368   296.16711525
 C    151 150 141     2.536388777841   123.30660949    36.71741805
 N    152 151 150     2.552989396293   120.09739920     1.37573771
 N    152 151 150     2.517675452181   119.89255410   178.53064331
 H    150 141 136     2.088377478062    94.33323313    47.18946369
 H    150 141 136     2.093164533001    37.61659476   162.78680690
 H    151 150 141     1.950024085658   119.25980454   229.21057428
 H    153 152 151     1.917514721310   119.77613951   338.08256520
 H    153 152 151     1.930877728772   119.29517960   183.97773451
 H    154 152 151     1.954826259860   121.88244499   351.31838476
 H    154 152 151     1.939323237936   119.41439076   159.21658768
 H    150 141 136     2.079267654380   144.97435292   177.83812514
 H     48  47  46     3.269682915799   114.37422206    79.69585145
 O    124 118 117     4.503691263506   175.36802521   174.33042761
 H    164 124 118     1.845439444742    90.08978671   300.30320665
 H    164 124 118     1.864823484358    76.27599088    41.38336042
 O     11   6   5     3.522350503019    87.21574362   177.69329002
 H    167  11   6     1.881174711664   112.22622064   181.61669372
 O     68  63   8     5.563949098640   129.50847062   131.82886468
 H    169  68  63     1.905588428357    58.06510119   235.36501939
 H    169  68  63     1.841782103424    58.22891066    97.69101753
 O    163  48  47     1.877734396567   165.39892066   154.08893422
 H    172 163  48     2.180749549327   113.81574077   132.25304252
 O     27  26  24     5.284243557365   126.09809963   302.91795505
 H    174  27  26     1.890378657785     5.30909882   278.92606299
 H    174  27  26     1.862508094458   104.65868544   169.87805688
 O    168 167  11     7.078070697971    93.36011242   109.32353692
 H    177 168 167     1.881788211385    50.14846207   108.61814441
 H    177 168 167     1.856148426177    67.49472671   240.94939850
 O    179 177 168     3.784106726227   161.00631927    20.93356075
 H    180 179 177     1.870294866318    82.96547073    33.51241632
 H    180 179 177     1.892975583395   147.72630754   130.47376065
 O      1   2   3     4.515805720414    94.64931456   213.12635753
 H    183   1   2     1.882952571246   114.15144883    89.22934351
 H    183   1   2     1.940555997678   126.68442192   216.00692194
 O    168 167  11     3.424815109591   169.68909106    67.64251833
 H    186 168 167     1.893571575729    92.71233160   346.39308610
 H    186 168 167     1.864893974813    92.31451305   240.74780102
 O    174  27  26     5.675510255504   121.74071795   351.36390569
 H    189 174  27     1.887436436139    83.91176897    26.93421524
 H    189 174  27     1.855529159885    18.16813334   202.01084372
 O    169  68  63     5.195141540472    88.13631856   332.36400637
 H    192 169  68     1.887781561471     9.21823000    82.42801997
 H    192 169  68     1.877592980736   114.42763987    50.86496786
 O    134 129 124     4.586057551746   149.90777814   106.73464869
 H    195 134 129     1.898543654335    84.77808477   288.59228938
 H    195 134 129     1.900934500531   164.80558753   158.31853476
 O    196 195 134     3.227882634399   174.59226582   269.82420259
 H    198 196 195     1.886235331160   113.92113001   149.64730786
 H    198 196 195     1.876985635240   109.55046245   265.36416234
 O      1   2   3     4.735429876299   141.97280897   129.80957838
 H    201   1   2     1.891199517543   108.68989918    33.18782775
 H    201   1   2     1.921356239608   108.97771011   274.74234313
 O    194 192 169     3.424710865536   169.40420325   177.91966624
 H    204 194 192     1.844782652403   101.28391187   351.92363989
 H    204 194 192     1.883990857726   109.34310702   100.31176758
 O    190 189 174     3.335086710828   167.42641921    51.09292828
 H    207 190 189     1.849900662753   115.16740036   245.72356220
 H    207 190 189     1.886140139830    93.56723645   352.43172281
[...]
B(149-C ,150-N ) :   0.9763 B(149-C ,154-H ) :   0.9537 B(149-C ,155-H ) :   0.9534 
B(149-C ,161-H ) :   0.9553 B(150-N ,151-C ) :   1.3624 B(150-N ,156-H ) :   0.8388 
B(151-C ,152-N ) :   1.2868 B(151-C ,153-N ) :   1.3765 B(152-N ,157-H ) :   0.8840 
B(152-N ,158-H ) :   0.8409 B(153-N ,159-H ) :   0.8153 B(153-N ,160-H ) :   0.8153 
B(159-H ,234-O ) :   0.1273 B(162-H ,171-O ) :   0.7753 B(163-O ,164-H ) :   0.8771 
B(163-O ,165-H ) :   0.8353 B(166-O ,167-H ) :   0.7965 B(166-O ,202-H ) :   0.1160 
B(167-H ,185-O ) :   0.1055 B(168-O ,169-H ) :   0.7789 B(168-O ,170-H ) :   0.8766 
B(168-O ,192-H ) :   0.1127 B(169-H ,212-O ) :   0.1438 B(171-O ,172-H ) :   0.4877 
B(173-O ,174-H ) :   0.7847 B(173-O ,175-H ) :   0.8282 B(173-O ,201-H ) :   0.1036 
B(176-O ,177-H ) :   0.8184 B(176-O ,178-H ) :   0.8595 B(177-H ,222-O ) :   0.1042 
B(179-O ,180-H ) :   0.7868 B(179-O ,181-H ) :   0.8023 B(179-O ,186-H ) :   0.1059 
B(182-O ,183-H ) :   0.7808 B(182-O ,184-H ) :   0.6989 B(185-O ,186-H ) :   0.7916 
B(185-O ,187-H ) :   0.8214 B(188-O ,189-H ) :   0.8038 B(188-O ,190-H ) :   0.8566 
B(189-H ,206-O ) :   0.1014 B(191-O ,192-H ) :   0.8022 B(191-O ,193-H ) :   0.8103 
B(191-O ,196-H ) :   0.1391 B(194-O ,195-H ) :   0.7731 B(194-O ,196-H ) :   0.7865 
B(194-O ,213-H ) :   0.1403 B(195-H ,197-O ) :   0.1068 B(197-O ,198-H ) :   0.7886 
B(197-O ,199-H ) :   0.8107 B(200-O ,201-H ) :   0.7744 B(200-O ,202-H ) :   0.7387 
B(200-O ,208-H ) :   0.1002 B(203-O ,204-H ) :   0.8707 B(203-O ,205-H ) :   0.7951 
B(206-O ,207-H ) :   0.8583 B(206-O ,208-H ) :   0.7789 B(209-O ,210-H ) :   0.8118 
B(209-O ,211-H ) :   0.7954 B(212-O ,213-H ) :   0.7335 B(212-O ,214-H ) :   0.8771 
B(215-C ,216-C ) :   1.0075 B(215-C ,219-H ) :   0.9311 B(215-C ,220-H ) :   0.9281 
B(215-C ,221-H ) :   0.9594 B(216-C ,217-O ) :   1.4479 B(216-C ,218-O ) :   1.3921 
B(222-O ,223-H ) :   0.8076 B(222-O ,224-H ) :   0.8427 B(226-C ,227-H ) :   0.9400 
B(226-C ,228-H ) :   0.9549 B(226-C ,229-C ) :   1.0226 B(226-C ,234-O ) :   0.9919 
B(229-C ,230-H ) :   0.9331 B(229-C ,231-C ) :   1.0167 B(229-C ,238-O ) :   0.8080 
B(231-C ,232-H ) :   0.9479 B(231-C ,233-H ) :   0.9272 B(231-C ,236-O ) :   0.9608 
B(234-O ,235-H ) :   0.7344 B(236-O ,237-H ) :   0.8627 B(238-O ,239-H ) :   0.8593 


-------
TIMINGS
-------

Total SCF time: 0 days 19 hours 22 min 27 sec 

Total time                  ....   69747.147 sec
Sum of individual times     ....  119142.780 sec  (170.8%)

Fock matrix formation       ....  105324.841 sec  (151.0%)
  Split-RI-J                ....    9794.692 sec  (  9.3% of F)
  Chain of spheres X        ....   84460.498 sec  ( 80.2% of F)
  XC integration            ....    6192.384 sec  (  5.9% of F)
    Basis function eval.    ....     507.038 sec  (  8.2% of XC)
    Density eval.           ....    3243.949 sec  ( 52.4% of XC)
    XC-Functional eval.     ....      38.581 sec  (  0.6% of XC)
    XC-Potential eval.      ....    2005.560 sec  ( 32.4% of XC)
Diagonalization             ....    2414.639 sec  (  3.5%)
Density matrix formation    ....     387.746 sec  (  0.6%)
Population analysis         ....      76.715 sec  (  0.1%)
Initial guess               ....     138.245 sec  (  0.2%)
Orbital Transformation      ....    2696.693 sec  (  3.9%)
Orbital Orthonormalization  ....       0.000 sec  (  0.0%)
DIIS solution               ....     939.068 sec  (  1.3%)
Grid generation             ....     378.088 sec  (  0.5%)
--------------------------
UHF CORRESPONDING ORBITALS
--------------------------
Transforming orbitals                         ... done
Choosing virtual orbitals in the orth. comp.  ... [DEBUG] $(date) Sun Jul 16 15:16:43 CST 2023
done

                ***UHF Corresponding Orbitals were saved in S3_glycerol_model_7A_2_Flip_BS_aaba_Mn9_3.uco***


Now the overlap between the corresponding orbitals will be plotted
Since there are an equal number of alpha and beta orbitals each orbital in the
alpha set is matched by an orbital in the beta set. If all overlaps are close to
one you have a normal UHF solution with some spin polarization
If you have a broken symmetry solution there will be overlaps that are
significantly smaller than one. These orbitals are the non-orthogonal magnetic
orbitals of the broken symmetry UHF solution.

----------------------
 Orbital    Overlap(*)
----------------------
   0:      1.00000
   1:      1.00000
   2:      1.00000
   3:      1.00000
   4:      1.00000
   5:      1.00000
   6:      1.00000
   7:      1.00000
   8:      1.00000
   9:      1.00000
  10:      1.00000
  11:      1.00000
  12:      1.00000
  13:      1.00000
  14:      1.00000
  15:      1.00000
  16:      1.00000
  17:      1.00000
  18:      1.00000
  19:      1.00000
  20:      1.00000
  21:      1.00000
  22:      1.00000
  23:      1.00000
  24:      1.00000
  25:      1.00000
  26:      1.00000
  27:      1.00000
  28:      1.00000
  29:      1.00000
  30:      1.00000
  31:      1.00000
  32:      1.00000
  33:      1.00000
  34:      1.00000
  35:      1.00000
  36:      1.00000
  37:      1.00000
  38:      1.00000
  39:      1.00000
  40:      1.00000
  41:      1.00000
  42:      1.00000
  43:      1.00000
  44:      1.00000
  45:      1.00000
  46:      1.00000
  47:      1.00000
  48:      1.00000
  49:      1.00000
  50:      1.00000
  51:      1.00000
  52:      1.00000
  53:      1.00000
  54:      1.00000
  55:      1.00000
  56:      1.00000
  57:      1.00000
  58:      1.00000
  59:      1.00000
  60:      1.00000
  61:      1.00000
  62:      1.00000
  63:      1.00000
  64:      1.00000
  65:      1.00000
  66:      1.00000
  67:      1.00000
  68:      1.00000
  69:      1.00000
  70:      1.00000
  71:      1.00000
  72:      1.00000
  73:      1.00000
  74:      1.00000
  75:      1.00000
  76:      1.00000
  77:      1.00000
  78:      1.00000
  79:      1.00000
  80:      1.00000
  81:      1.00000
  82:      1.00000
  83:      1.00000
  84:      1.00000
  85:      1.00000
  86:      1.00000
  87:      1.00000
  88:      1.00000
  89:      1.00000
  90:      1.00000
  91:      1.00000
  92:      1.00000
  93:      1.00000
  94:      1.00000
  95:      1.00000
  96:      1.00000
  97:      1.00000
  98:      1.00000
  99:      1.00000
 100:      1.00000
 101:      1.00000
 102:      1.00000
 103:      1.00000
 104:      1.00000
 105:      1.00000
 106:      1.00000
 107:      1.00000
 108:      1.00000
 109:      1.00000
 110:      1.00000
 111:      1.00000
 112:      1.00000
 113:      1.00000
 114:      1.00000
 115:      1.00000
 116:      1.00000
 117:      1.00000
 118:      1.00000
 119:      1.00000
 120:      1.00000
 121:      1.00000
 122:      1.00000
 123:      1.00000
 124:      1.00000
 125:      1.00000
 126:      1.00000
 127:      1.00000
 128:      1.00000
 129:      1.00000
 130:      1.00000
 131:      1.00000
 132:      1.00000
 133:      1.00000
 134:      1.00000
 135:      1.00000
 136:      1.00000
 137:      1.00000
 138:      1.00000
 139:      1.00000
 140:      1.00000
 141:      1.00000
 142:      1.00000
 143:      1.00000
 144:      1.00000
 145:      1.00000
 146:      1.00000
 147:      1.00000
 148:      1.00000
 149:      1.00000
 150:      1.00000
 151:      1.00000
 152:      1.00000
 153:      1.00000
 154:      1.00000
 155:      1.00000
 156:      1.00000
 157:      1.00000
 158:      1.00000
 159:      1.00000
 160:      1.00000
 161:      1.00000
 162:      1.00000
 163:      1.00000
 164:      1.00000
 165:      1.00000
 166:      1.00000
 167:      1.00000
 168:      1.00000
 169:      1.00000
 170:      1.00000
 171:      1.00000
 172:      1.00000
 173:      1.00000
 174:      1.00000
 175:      1.00000
 176:      1.00000
 177:      1.00000
 178:      1.00000
 179:      1.00000
 180:      1.00000
 181:      1.00000
 182:      1.00000
 183:      1.00000
 184:      1.00000
 185:      1.00000
 186:      1.00000
 187:      1.00000
 188:      1.00000
 189:      1.00000
 190:      1.00000
 191:      1.00000
 192:      1.00000
 193:      1.00000
 194:      1.00000
 195:      1.00000
 196:      1.00000
 197:      1.00000
 198:      1.00000
 199:      1.00000
 200:      1.00000
 201:      1.00000
 202:      1.00000
 203:      1.00000
 204:      1.00000
 205:      1.00000
 206:      1.00000
 207:      1.00000
 208:      1.00000
 209:      1.00000
 210:      1.00000
 211:      1.00000
 212:      1.00000
 213:      1.00000
 214:      1.00000
 215:      1.00000
 216:      1.00000
 217:      1.00000
 218:      1.00000
 219:      1.00000
 220:      1.00000
 221:      1.00000
 222:      1.00000
 223:      1.00000
 224:      1.00000
 225:      1.00000
 226:      1.00000
 227:      1.00000
 228:      1.00000
 229:      1.00000
 230:      1.00000
 231:      1.00000
 232:      1.00000
 233:      1.00000
 234:      1.00000
 235:      1.00000
 236:      1.00000
 237:      1.00000
 238:      1.00000
 239:      1.00000
 240:      1.00000
 241:      1.00000
 242:      1.00000
 243:      1.00000
 244:      1.00000
 245:      1.00000
 246:      1.00000
 247:      1.00000
 248:      1.00000
 249:      1.00000
 250:      1.00000
 251:      1.00000
 252:      1.00000
 253:      1.00000
 254:      1.00000
 255:      1.00000
 256:      1.00000
 257:      1.00000
 258:      1.00000
 259:      1.00000
 260:      1.00000
 261:      1.00000
 262:      1.00000
 263:      1.00000
 264:      1.00000
 265:      1.00000
 266:      1.00000
 267:      1.00000
 268:      1.00000
 269:      1.00000
 270:      1.00000
 271:      1.00000
 272:      1.00000
 273:      1.00000
 274:      1.00000
 275:      1.00000
 276:      1.00000
 277:      1.00000
 278:      1.00000
 279:      1.00000
 280:      1.00000
 281:      1.00000
 282:      1.00000
 283:      1.00000
 284:      1.00000
 285:      1.00000
 286:      1.00000
 287:      1.00000
 288:      1.00000
 289:      1.00000
 290:      1.00000
 291:      1.00000
 292:      1.00000
 293:      1.00000
 294:      1.00000
 295:      1.00000
 296:      1.00000
 297:      1.00000
 298:      1.00000
 299:      1.00000
 300:      1.00000
 301:      1.00000
 302:      1.00000
 303:      1.00000
 304:      1.00000
 305:      1.00000
 306:      1.00000
 307:      1.00000
 308:      1.00000
 309:      1.00000
 310:      1.00000
 311:      1.00000
 312:      1.00000
 313:      1.00000
 314:      1.00000
 315:      1.00000
 316:      1.00000
 317:      1.00000
 318:      1.00000
 319:      1.00000
 320:      1.00000
 321:      1.00000
 322:      1.00000
 323:      1.00000
 324:      1.00000
 325:      1.00000
 326:      1.00000
 327:      1.00000
 328:      1.00000
 329:      1.00000
 330:      1.00000
 331:      1.00000
 332:      1.00000
 333:      1.00000
 334:      1.00000
 335:      1.00000
 336:      1.00000
 337:      1.00000
 338:      1.00000
 339:      1.00000
 340:      1.00000
 341:      1.00000
 342:      1.00000
 343:      1.00000
 344:      1.00000
 345:      1.00000
 346:      1.00000
 347:      1.00000
 348:      1.00000
 349:      1.00000
 350:      1.00000
 351:      1.00000
 352:      1.00000
 353:      1.00000
 354:      1.00000
 355:      1.00000
 356:      1.00000
 357:      1.00000
 358:      1.00000
 359:      1.00000
 360:      1.00000
 361:      1.00000
 362:      1.00000
 363:      1.00000
 364:      1.00000
 365:      1.00000
 366:      1.00000
 367:      1.00000
 368:      1.00000
 369:      1.00000
 370:      1.00000
 371:      1.00000
 372:      1.00000
 373:      1.00000
 374:      1.00000
 375:      1.00000
 376:      1.00000
 377:      1.00000
 378:      1.00000
 379:      1.00000
 380:      1.00000
 381:      1.00000
 382:      1.00000
 383:      1.00000
 384:      1.00000
 385:      1.00000
 386:      1.00000
 387:      1.00000
 388:      1.00000
 389:      1.00000
 390:      1.00000
 391:      1.00000
 392:      1.00000
 393:      1.00000
 394:      1.00000
 395:      1.00000
 396:      1.00000
 397:      1.00000
 398:      1.00000
 399:      1.00000
 400:      1.00000
 401:      1.00000
 402:      1.00000
 403:      1.00000
 404:      1.00000
 405:      1.00000
 406:      1.00000
 407:      1.00000
 408:      1.00000
 409:      1.00000
 410:      1.00000
 411:      1.00000
 412:      1.00000
 413:      1.00000
 414:      1.00000
 415:      1.00000
 416:      1.00000
 417:      1.00000
 418:      1.00000
 419:      1.00000
 420:      1.00000
 421:      1.00000
 422:      1.00000
 423:      1.00000
 424:      1.00000
 425:      1.00000
 426:      1.00000
 427:      1.00000
 428:      1.00000
 429:      1.00000
 430:      1.00000
 431:      1.00000
 432:      1.00000
 433:      1.00000
 434:      1.00000
 435:      1.00000
 436:      0.99999
 437:      0.99999
 438:      0.99999
 439:      0.99999
 440:      0.99999
 441:      0.99999
 442:      0.99999
 443:      0.99999
 444:      0.99999
 445:      0.99999
 446:      0.99999
 447:      0.99998
 448:      0.99998
 449:      0.99998
 450:      0.99998
 451:      0.99998
 452:      0.99997
 453:      0.99997
 454:      0.99997
 455:      0.99997
 456:      0.99997
 457:      0.99997
 458:      0.99996
 459:      0.99996
 460:      0.99996
 461:      0.99995
 462:      0.99994
 463:      0.99994
 464:      0.99993
 465:      0.99992
 466:      0.99992
 467:      0.99990
 468:      0.99990
 469:      0.99990
 470:      0.99989
 471:      0.99989
 472:      0.99988
 473:      0.99987
 474:      0.99986
 475:      0.99985
 476:      0.99983
 477:      0.99976
 478:      0.99974
 479:      0.99969
 480:      0.99968
 481:      0.99965
 482:      0.99964
 483:      0.99963
 484:      0.99960
 485:      0.99954
 486:      0.99951
 487:      0.99947
 488:      0.99943
 489:      0.99217
 490:      0.99165
 491:      0.99125
 492:      0.99108
 493:      0.99070
 494:      0.99018
 495:      0.98830
 496:      0.98607
 497:      0.21168
 498:      0.18715
 499:      0.06685
 500:      0.00000
 501:      0.00000
 502:     -0.00000
 503:     -0.00000
 504:     -0.00000
 505:      0.00000
(*)  the overlap is weighted by the product of occupation numbers
     NOTE: the whole analysis is not valid for fractional occupations

------------------------------------------
BROKEN SYMMETRY MAGNETIC COUPLING ANALYSIS
------------------------------------------

S(High-Spin)      =   6.0    
<S**2>(High-Spin) =  42.1626    
<S**2>(BrokenSym) =  15.0858    
E(High-Spin)      = -11534.304176 Eh
E(BrokenSym)      = -11534.304713 Eh
E(High-Spin)-E(BrokenSym)= 0.0146 eV    117.863 cm**-1 (ANTIFERROMAGNETIC coupling)

          ---------------------------------------------------------
          | Spin-Hamiltonian Analysis based on H(HDvV)= -2J*SA*SB |
    -------                                                       -----------
    | J(1) =      -3.27 cm**-1    (from -(E[HS]-E[BS])/Smax**2)             |
    | J(2) =      -2.81 cm**-1    (from -(E[HS]-E[BS])/(Smax*(Smax+1))      |
    | J(3) =      -4.35 cm**-1    (from -(E[HS]-E[BS])/(<S**2>HS-<S**2>BS)) |
    -------------------------------------------------------------------------

  J(1): (a) A.P. Ginsberg J. Am. Chem. Soc. 102 (1980), 111
        (b) L. Noodleman J. Chem. Phys. 74 (1981), 5737
        (c) L. Noodleman E.R. Davidson Chem. Phys. 109 (1985), 131
  J(2)  (d) A. Bencini D. Gatteschi J. Am. Chem. Soc. 108 (1980), 5763
  J(3)  (e) K. Yamaguchi Y. Takahara T. Fueno in: V.H. Smith (Ed.)
            Applied Quantum Chemistry. Reidel, Dordrecht (1986), pp 155
        (f) T.Soda et al. Chem. Phys. Lett., 319, (2000), 223

-------
TIMINGS
-------

Total SCF time: 1 days 9 hours 27 min 48 sec 

Total time                  ....  120468.288 sec
Sum of individual times     ....   70301.347 sec  ( 58.4%)

Fock matrix formation       ....       0.000 sec  (  0.0%)
Diagonalization             ....       0.000 sec  (  0.0%)
Density matrix formation    ....       0.000 sec  (  0.0%)
Population analysis         ....   70301.347 sec  ( 58.4%)
Initial guess               ....       0.000 sec  (  0.0%)
Orbital Transformation      ....       0.000 sec  (  0.0%)
Orbital Orthonormalization  ....       0.000 sec  (  0.0%)
DIIS solution               ....       0.000 sec  (  0.0%)
Grid generation             ....       0.000 sec  (  0.0%)

Maximum memory used throughout the entire SCF-calculation: 4865.3 MB


-------------------------------------------------------------------------------
                          DFT DISPERSION CORRECTION                            
                                                                               
                              DFTD3 V3.1  Rev 1                                
                          USING Becke-Johnson damping                          
-------------------------------------------------------------------------------
The TPSSH functional is recognized
Active option DFTDOPT                   ...         4   

molecular C6(AA) [au] = 505844.581764 


            DFT-D V3
 parameters
 s6 scaling factor         :     1.0000 
 a1 scaling factor         :     0.4529 
 s8 scaling factor         :     2.2382 
 a2 scaling factor         :     4.6550 
 ad hoc parameters k1-k3   :    16.0000     1.3333    -4.0000 

 Edisp/kcal,au: -256.884533117270  -0.409371517615 
 E6   /kcal   : -129.621183147 
 E8   /kcal   : -127.263349970 
 % E8         :  49.541071401 

-------------------------   ----------------
Dispersion correction           -0.409371518
-------------------------   ----------------


-------------------------   --------------------
FINAL SINGLE POINT ENERGY    -11534.714084731149
-------------------------   --------------------


                            ***************************************
                            *     ORCA property calculations      *
                            ***************************************

                                    ---------------------
                                    Active property flags
                                    ---------------------
   (+) Dipole Moment


------------------------------------------------------------------------------
                       ORCA ELECTRIC PROPERTIES CALCULATION
------------------------------------------------------------------------------

Dipole Moment Calculation                       ... on
Quadrupole Moment Calculation                   ... off
Polarizability Calculation                      ... off
GBWName                                         ... S3_glycerol_model_7A_2_Flip_BS_aaba_Mn9_3.gbw
Electron density                                ... S3_glycerol_model_7A_2_Flip_BS_aaba_Mn9_3.scfp
The origin for moment calculation is the CENTER OF MASS  = (-63.123758, 73.706275 688.386067)

-------------
DIPOLE MOMENT
-------------
                                X             Y             Z
Electronic contribution:     12.66957     -88.24097      33.28108
Nuclear contribution   :     -5.99318      97.79923     -20.93983
                        -----------------------------------------
Total Dipole Moment    :      6.67639       9.55826      12.34125
                        -----------------------------------------
Magnitude (a.u.)       :     16.97766
Magnitude (Debye)      :     43.15379



--------------------
Rotational spectrum 
--------------------
 
Rotational constants in cm-1:     0.000417     0.000343     0.000267 
Rotational constants in MHz :    12.494992    10.296208     7.995168 

 Dipole components along the rotational axes: 
x,y,z [a.u.] :    -8.943438    -6.271007    12.997325 
x,y,z [Debye]:   -22.732413   -15.939634    33.036574 

 

Timings for individual modules:

Sum of individual times         ...   121264.772 sec (=2021.080 min)
GTO integral calculation        ...       54.650 sec (=   0.911 min)   0.0 %
Relativistic integrals          ...      508.701 sec (=   8.478 min)   0.4 %
SCF iterations                  ...   120701.422 sec (=2011.690 min)  99.5 %
                             ****ORCA TERMINATED NORMALLY****
TOTAL RUN TIME: 1 days 9 hours 41 minutes 22 seconds 705 msec
